<LesHouchesEvents version="1.0">
<!--
#*********************************************************************
#                                                                    *
#                       MadGraph/MadEvent                            *
#                                                                    *
#                      The new web generation                        *
#                                                                    *
#                   http://madgraph.hep.uiuc.edu                     *
#                   http://madgraph.phys.ucl.ac.be                   *
#                   http://madgraph.roma2.infn.it                    *
#                                                                    *
#            CP3 team                      Tim Stelzer               *
#      Universite de Louvain          University of Illinois         *
#                                                                    *
#....................................................................*
#                                                                    *
# This file contains all the information necessary to reproduce      *
# the events generated:                                              *
#                                                                    *
# 1. sofware version                                                 *
# 2. proc_card.dat      : code generation info including model       *
# 3. param_card.dat     : model primary parameters in the LH format  *
# 4. run_card.dat       : running parameters (collider and cuts)     *
# 5. pythia_card.dat    : present only in the pythia event file      *
# 6. pgs_card.dat       : present only in the pgs event file         *
#                                                                    *
#                                                                    *
#....................................................................*
#>>>>>>>>>>>>>>>>>>>>>>>>>>>>>>>>>>>>>>>>>>>>>>>>>>>>>>>>>>>>>>>>>>>>>
# Begin version
#
# MG/ME version    : 4.0.0
# madgraph version : 4.0.0
# template version : 2.0.0
# helas version    : 2.0.0
# model version    : sm_1.0
#
# End version
#<<<<<<<<<<<<<<<<<<<<<<<<<<<<<<<<<<<<<<<<<<<<<<<<<<<<<<<<<<<<<<<<<<<<<
#>>>>>>>>>>>>>>>>>>>>>>>>>>>>>>>>>>>>>>>>>>>>>>>>>>>>>>>>>>>>>>>>>>>>>
# Begin proc_card.dat
#
#*********************************************************************
#                        MadGraph/MadEvent                           *
#                   http://madgraph.hep.uiuc.edu                     *
#                                                                    *
#                          proc_card.dat                             *
#                                                                    *
# This file is used to generate the code for a specific process.     *
# Some notation/conventions:                                         *
#                                                                    *
# 0. Do not modify the TAGS and their order.                         *
# 1. hash/pound is a comment.                                        *
# 2. The charcter after the @ is used as an identifier for the class *
#    of processes. It can be a single or a digit.                    *
# 3. The number of lines for the max couplings depends on how many   *
#    different classes of couplings are present in the model         *
#    In the SM these are just two: QED (which include EW) and QCD    *
# 4. Write "end_coup" after  the couplings list,                     *
#    to tell MG that the couplings input is over.                    *
# 5. Write "done" after the proc list to                             *
#    to tell MG that the proc input is over.                         *
# 6. Some model names available at present are:                      *
#    sm     =  Standard Model                                        *
#    sm_ckm =  Standard Model with Cabibbo matrix                    *
#    mssm   =  Minimal Supersymmetric Standard Model                 *
#    2hdm   =  Generic Two Higgs Doublet model                       *
#    heft   =  Higgs EFT (+Standard Model)                           *
#    usrmod =  User Model                                            *
# 7. Don't leave spaces between the particles name in the            *
#    definition of the multiparticles.                               *
#*********************************************************************
#*********************************************************************
# Process(es) requested : mg2 input                                  *
#*********************************************************************
# Begin PROCESS # This is TAG. Do not modify this line
pp>tt~   #  Process 
QCD=99   # max qcd order
QED=99   # max qed order
end_coup   # the coupling list is over
done       # the process list is over
# End PROCESS  # This is TAG. Do not modify this line
#*********************************************************************
# Model information                                                  *
#*********************************************************************
# Begin MODEL  # This is TAG. Do not modify this line
sm 
# End   MODEL  # This is TAG. Do not modify this line
#*********************************************************************
# Start multiparticle definitions                                    *
#*********************************************************************
# Begin MULTIPARTICLES # This is TAG. Do not modify this line
p uu~dd~ss~cc~g 
j uu~dd~ss~cc~g
l+ e+mu+ 
l- e-mu- 
vl vevm 
vl~ ve~vm~
# End  MULTIPARTICLES # This is TAG. Do not modify this line
#
# End proc_card.dat
#<<<<<<<<<<<<<<<<<<<<<<<<<<<<<<<<<<<<<<<<<<<<<<<<<<<<<<<<<<<<<<<<<<<<<
#>>>>>>>>>>>>>>>>>>>>>>>>>>>>>>>>>>>>>>>>>>>>>>>>>>>>>>>>>>>>>>>>>>>>>
# Begin param_card.dat
#
#*********************************************************************
#                        MadGraph/MadEvent                           *
#                   http://madgraph.hep.uiuc.edu                     *
#                                                                    *
#                         param_card.dat                             *
#                                                                    *
#   Les Houches friendly file for the SM parameters of MadGraph      *
#        Spectrum and decay widths produced by SMCalc                *
#                                                                    *
#  Please note the following IMPORTANT issues:                       *
#                                                                    *
# 0. REFRAIN from editing this file by hand! Some of the parame-     *
#    ters are not independent                                        *
#    (such as G_Fermi, alpha_em, sin(theta_W),MZ,MW) and serious     *
#    problems might be encountered (such as violation of unitarity   *
#    or gauge invariance).  Always use a calculator.                 *
#                                                                    *
# 1. alpha_S(MZ) has been used in the calculation of the parameters  *
#    but, for consistency, it will be reset by madgraph to the       *
#    value expected IF the pdfs for collisions with hadrons are      *
#    used. This value is KEPT by madgraph when no pdf are used       *
#    lpp(i)=0 .                                                      *
#                                                                    *
#  2. Values of the charm and bottom kinematic (pole) masses are     *
#     those used in the matrix elements and phase space UNLESS they  *
#     are set to ZERO from the start in the model (particles.dat)    *
#     This happens, for example,  when using 5-flavor QCD where      *
#     charm and bottom are treated as partons in the initial state   *
#     and a zero mass might be hardwired in the model definition.    *
#                                                                    *
##********************************************************************
Block MODSEL # Select Model
     0   1   #  0 1 = SM
Block SMINPUTS      # Standard Model inputs
     1         1.27900000E+02   # alpha_em(MZ)(-1) SM MSbar
     2         1.16600000E-05   # G_Fermi
     3         1.18000000E-01   # alpha_s(MZ) SM MSbar
     4         9.15445065E+01   # Z mass (as input parameter)
Block MGSMPARAM      # Standard Model parameters for MadGraph
     1         2.31200000E-01   # sin(theta_W)^2
     2         8.02673592E+01   # W mass (as input parameter)
Block MGYUKAWA     # Yukawa masses m/v=y/sqrt(2)
#    PDG          YMASS
     5         4.20000000E+00   # mbottom for the Yukawa  y_b
     4         1.25000000E+00   # mcharm  for the Yukawa  y_c
     6         1.74300000E+02   # mtop    for the Yukawa  y_t
    15         1.77700000E+00   # mtau    for the Yukawa  y_ta
Block MGCKM     # CKM elements for MadGraph
     1   1     9.75000000E-01   # Vud for Cabibbo matrix
Block MASS      #  Mass spectrum (kinematic masses)
#       PDG       Mass
         5     4.20000000E+00   # bottom   pole mass
         6     1.74300000E+02   # top      pole mass
        15     1.77700000E+00   # tau      mass
        23     9.15445065E+01   # Z        mass
        24     8.02673592E+01   # W        mass
        25     1.00000000E+02   # H        mass
#            PDG       Width
DECAY         6     1.51013490E+00   # top width
DECAY        23     2.44639985E+00   # Z   width
DECAY        24     2.03535570E+00   # W   width
DECAY        25     4.27608700E-03   # H   width
#        BR           NDA        ID1       ID2
     7.18385415E-02    2           4        -4   # BR( H -> c  cbar  )
     8.03404251E-01    2           5        -5   # BR( H -> b  bbar  )
     0.00000000E+00    2           6        -6   # BR( H -> t  tbar  )
     4.83591503E-02    2          15       -15   # BR( H -> tau- tau+)
     2.69892403E-05    2          23        23   # BR( H -> Z   Z^(*))
     3.67605190E-03    2          24       -24   # BR( H -> W   W^(*))
     2.43358656E-02    2          21        21   # BR( H -> g   g    )
#
# End param_card.dat
#<<<<<<<<<<<<<<<<<<<<<<<<<<<<<<<<<<<<<<<<<<<<<<<<<<<<<<<<<<<<<<<<<<<<<
#>>>>>>>>>>>>>>>>>>>>>>>>>>>>>>>>>>>>>>>>>>>>>>>>>>>>>>>>>>>>>>>>>>>>>
# Begin run_card.dat
#
#*********************************************************************
#                       MadGraph/MadEvent                            *
#                  http://madgraph.hep.uiuc.edu                      *
#                                                                    *
#                        run_card.dat                                *
#                                                                    *
#  This file is used to set the parameters of the run.               *
#                                                                    *
#  Some notation/conventions:                                        *
#                                                                    *
#   Lines starting with a '# ' are info or comments                  *
#                                                                    *
#   mind the format:   value    = variable     ! comment             *
#*********************************************************************
#
#*******************                                                 
# Running parameters
#*******************                                                 
#                                                                    
#*********************************************************************
# Tag name for the run (one word)                                    *
#*********************************************************************
 fermi = run_tag !  name of the run  
#*********************************************************************
# Number of events and rnd seed                                      *
#*********************************************************************
 10000 = nevents !  Number of unweighted events requested  
       26 = iseed !  rnd seed (0=assigned automatically=default)) 
#*********************************************************************
# Collider type and energy                                           *
#*********************************************************************
 1 = lpp1 !  beam 1 type (0=NO PDF) 
 1 = lpp2 !  beam 2 type (0=NO PDF) 
 7000 = ebeam1 !  beam 1 energy in GeV 
 7000 = ebeam2 !  beam 2 energy in GeV 
#*********************************************************************
# PDF CHOICE: this automatically fixes also alpha_s and its evol.    *
#*********************************************************************
 cteq6l1 = pdlabel !  PDF set                                      
#*********************************************************************
# Renormalization and factorization scales                           *
#*********************************************************************
  T             = fixed_ren_scale !  if .true. use fixed ren scale 
  T             = fixed_fac_scale !  if .true. use fixed fac scale 
 91.188 = scale !  fixed ren scale 
 91.188 = dsqrt_q2fact1 !  fixed fact scale for pdf1 
 91.188 = dsqrt_q2fact2 !  fixed fact scale for pdf2 
#*********************************************************************
#                                                                    
#*******************                                                 
# Standard Cuts
#*******************                                                 
#                                                                    
#*********************************************************************
# Minimum pt's                                                       *
#*********************************************************************
 20 = ptj !  minimum pt for the jets  
 0 = ptb !  minimum pt for the b  
 20 = pta !  minimum pt for the photons  
 0 = ptl !  minimum pt for the charged leptons  
#*********************************************************************
# Maximum rapidity                                                   *
#*********************************************************************
 5 = etaj !  max rap for the jets  
 2.5 = etab !  max rap for the b  
 2.5 = etaa !  max rap for the photons  
 1000 = etal !  max rap for the charged leptons  
#*********************************************************************
# Minimum DeltaR distance                                            *
#*********************************************************************
 0.4 = drjj !  distance between jets  
 0 = drbb !  distance between b's  
 0 = drll !  distance between leptons  
 0.4 = draa !  distance between gammas  
 0 = drbj !  distance between b and jet  
 0.4 = draj !  distance between gamma and jet  
 0 = drjl !  distance between jet and lepton  
 0 = drab !  distance between gamma and b  
 0 = drbl !  distance between b and lepton  
 0.4 = dral !  distance between gamma and lepton  
#*********************************************************************
# Minimum invariant mass for pairs                                   *
#*********************************************************************
 0 = mmjj !  min invariant mass of a jet pair  
 0 = mmbb !  min invariant mass of a b pair  
 0 = mmaa !  min invariant mass of gamma gamma pair 
 0 = mmll !  min invariant mass of l+l- (same flavour) lepton pair 
#*********************************************************************
# Inclusive cuts                                                     *
#*********************************************************************
 0 = xptj !  minimum pt for at least one jet   
 0 = xptb !  minimum pt for at least one b  
 0 = xpta !  minimum pt for at least one photon  
 0 = xptl !  minimum pt for at least one charged lepton  
#*********************************************************************
# WBF cuts                                                           *
#*********************************************************************
 0 = xetamin !  minimum rapidity for two jets in the WBF case   
#*********************************************************************
#
# End run_card.dat
#<<<<<<<<<<<<<<<<<<<<<<<<<<<<<<<<<<<<<<<<<<<<<<<<<<<<<<<<<<<<<<<<<<<<<
#                                                                     
#*******************                                                  
# Event information                                                   
#*******************                                                  
#                                                                     
#*********************************************************************
#  Number of Events        :       10003
#  Integrated weight (pb)  :  .75362E+03
#  Truncated wgt (pb)      :  .79483E+00
#  Unit wgt                :  .75339E-01
#*********************************************************************
-->
<init>
  2212  2212  0.70000000000E+04  0.70000000000E+04 0 0 10042 10042 3 1
  0.75361633394E+03  0.28026000000E+01  0.75339031685E-01 661
</init>
<event>
 4 661  0.7533903E-01  0.9118800E+02  0.7818608E-02  0.1300000E+00
       21   -1    0    0  501  502  0.00000000000E+00  0.00000000000E+00  0.22615550963E+03  0.22615550963E+03  0.00000000000E+00 0.  1.
       21   -1    0    0  502  503  0.00000000000E+00  0.00000000000E+00 -0.58808887196E+03  0.58808887196E+03  0.00000000000E+00 0.  1.
        6    1    1    2  501    0  0.28014193402E+02  0.12038861071E+03  0.14895311850E+03  0.26047213696E+03  0.17430000000E+03 0.  1.
       -6    1    1    2    0  503 -0.28014193402E+02 -0.12038861071E+03 -0.51088648084E+03  0.55377224463E+03  0.17430000000E+03 0.  1.
</event>
<event>
 4 661  0.7533903E-01  0.9118800E+02  0.7818608E-02  0.1300000E+00
       21   -1    0    0  502  503  0.00000000000E+00  0.00000000000E+00  0.29763819754E+03  0.29763819754E+03  0.00000000000E+00 0.  1.
       21   -1    0    0  501  502  0.00000000000E+00  0.00000000000E+00 -0.11924431464E+03  0.11924431464E+03  0.00000000000E+00 0.  1.
        6    1    1    2  501    0 -0.27812232945E+02  0.27352972242E+02  0.22908849311E+02  0.18007501428E+03  0.17430000000E+03 0.  1.
       -6    1    1    2    0  503  0.27812232945E+02 -0.27352972242E+02  0.15548503359E+03  0.23680749790E+03  0.17430000000E+03 0.  1.
</event>
<event>
 4 661  0.7533903E-01  0.9118800E+02  0.7818608E-02  0.1300000E+00
       21   -1    0    0  502  503  0.00000000000E+00  0.00000000000E+00  0.26602145221E+03  0.26602145221E+03  0.00000000000E+00 0.  1.
       21   -1    0    0  501  502  0.00000000000E+00  0.00000000000E+00 -0.13191046127E+03  0.13191046127E+03  0.00000000000E+00 0.  1.
        6    1    1    2  501    0  0.53635503786E+02 -0.38244690881E+02  0.46594553974E+02  0.19207021140E+03  0.17430000000E+03 0. -1.
       -6    1    1    2    0  503 -0.53635503786E+02  0.38244690881E+02  0.87516436967E+02  0.20586170209E+03  0.17430000000E+03 0. -1.
</event>
<event>
 4 661  0.7533903E-01  0.9118800E+02  0.7818608E-02  0.1300000E+00
       21   -1    0    0  501  502  0.00000000000E+00  0.00000000000E+00  0.12052764918E+03  0.12052764918E+03  0.00000000000E+00 0.  1.
       21   -1    0    0  502  503  0.00000000000E+00  0.00000000000E+00 -0.27187511044E+03  0.27187511044E+03  0.00000000000E+00 0.  1.
        6    1    1    2  501    0 -0.37907257058E+02 -0.11201497885E+02 -0.44531898109E+02  0.18419015620E+03  0.17430000000E+03 0.  1.
       -6    1    1    2    0  503  0.37907257058E+02  0.11201497885E+02 -0.10681556314E+03  0.20821260342E+03  0.17430000000E+03 0.  1.
</event>
<event>
 4 661  0.7533903E-01  0.9118800E+02  0.7818608E-02  0.1300000E+00
       21   -1    0    0  502  503  0.00000000000E+00  0.00000000000E+00  0.72071194343E+03  0.72071194343E+03  0.00000000000E+00 0. -1.
       21   -1    0    0  501  502  0.00000000000E+00  0.00000000000E+00 -0.14548493253E+03  0.14548493253E+03  0.00000000000E+00 0.  1.
        6    1    1    2  501    0 -0.42290358713E+02 -0.12398540766E+03 -0.32583445893E+02  0.22046094144E+03  0.17430000000E+03 0.  1.
       -6    1    1    2    0  503  0.42290358713E+02  0.12398540766E+03  0.60781045680E+03  0.64573593453E+03  0.17430000000E+03 0. -1.
</event>
<event>
 4 661  0.7533903E-01  0.9118800E+02  0.7818608E-02  0.1300000E+00
       21   -1    0    0  501  502  0.00000000000E+00  0.00000000000E+00  0.21610295161E+03  0.21610295161E+03  0.00000000000E+00 0.  1.
       21   -1    0    0  502  503  0.00000000000E+00  0.00000000000E+00 -0.38867799337E+03  0.38867799337E+03  0.00000000000E+00 0. -1.
        6    1    1    2  501    0 -0.20704235937E+03 -0.67375913939E+02 -0.40791943552E+01  0.27893221789E+03  0.17430000000E+03 0.  1.
       -6    1    1    2    0  503  0.20704235937E+03  0.67375913939E+02 -0.16849584741E+03  0.32584872709E+03  0.17430000000E+03 0. -1.
</event>
<event>
 4 661  0.7533903E-01  0.9118800E+02  0.7818608E-02  0.1300000E+00
       21   -1    0    0  502  503  0.00000000000E+00  0.00000000000E+00  0.16664975268E+04  0.16664975268E+04  0.00000000000E+00 0.  1.
       21   -1    0    0  501  502  0.00000000000E+00  0.00000000000E+00 -0.21779511708E+02  0.21779511708E+02  0.00000000000E+00 0. -1.
        6    1    1    2  501    0  0.59611722990E+02 -0.31082201583E+02  0.65684713852E+03  0.68289700113E+03  0.17430000000E+03 0.  1.
       -6    1    1    2    0  503 -0.59611722990E+02  0.31082201583E+02  0.98787087655E+03  0.10053800374E+04  0.17430000000E+03 0.  1.
</event>
<event>
 4 661  0.7533903E-01  0.9118800E+02  0.7818608E-02  0.1300000E+00
       21   -1    0    0  502  503  0.00000000000E+00  0.00000000000E+00  0.20057790418E+03  0.20057790418E+03  0.00000000000E+00 0. -1.
       21   -1    0    0  501  502  0.00000000000E+00  0.00000000000E+00 -0.77536171271E+03  0.77536171271E+03  0.00000000000E+00 0. -1.
        6    1    1    2  501    0  0.83491652363E+02 -0.17506343694E+03 -0.65345633903E+03  0.70356502186E+03  0.17430000000E+03 0. -1.
       -6    1    1    2    0  503 -0.83491652363E+02  0.17506343694E+03  0.78672530496E+02  0.27237459504E+03  0.17430000000E+03 0. -1.
</event>
<event>
 4 661  0.7533903E-01  0.9118800E+02  0.7818608E-02  0.1300000E+00
       21   -1    0    0  501  502  0.00000000000E+00  0.00000000000E+00  0.63840826944E+02  0.63840826944E+02  0.00000000000E+00 0. -1.
       21   -1    0    0  502  503  0.00000000000E+00  0.00000000000E+00 -0.13078721808E+04  0.13078721808E+04  0.00000000000E+00 0. -1.
        6    1    1    2  501    0  0.15850094596E+03  0.41704145936E+02 -0.10066020165E+04  0.10346448160E+04  0.17430000000E+03 0. -1.
       -6    1    1    2    0  503 -0.15850094596E+03 -0.41704145936E+02 -0.23742933741E+03  0.33706819179E+03  0.17430000000E+03 0. -1.
</event>
<event>
 4 661  0.7533903E-01  0.9118800E+02  0.7818608E-02  0.1300000E+00
       21   -1    0    0  502  503  0.00000000000E+00  0.00000000000E+00  0.18963334276E+04  0.18963334276E+04  0.00000000000E+00 0.  1.
       21   -1    0    0  501  502  0.00000000000E+00  0.00000000000E+00 -0.59698603899E+02  0.59698603899E+02  0.00000000000E+00 0.  1.
        6    1    1    2  501    0  0.90564667225E+02 -0.63637486320E+02  0.14610654433E+03  0.25294129934E+03  0.17430000000E+03 0.  1.
       -6    1    1    2    0  503 -0.90564667225E+02  0.63637486320E+02  0.16905282794E+04  0.17030907321E+04  0.17430000000E+03 0.  1.
</event>
<event>
 4 661  0.7533903E-01  0.9118800E+02  0.7818608E-02  0.1300000E+00
       -1   -1    0    0    0  502  0.00000000000E+00  0.00000000000E+00  0.76119449459E+02  0.76119449459E+02  0.00000000000E+00 0.  1.
        1   -1    0    0  501    0  0.00000000000E+00  0.00000000000E+00 -0.11223382600E+04  0.11223382600E+04  0.00000000000E+00 0. -1.
        6    1    1    2  501    0 -0.14621476382E+01 -0.34786833264E+02 -0.99880768707E+03  0.10144996537E+04  0.17430000000E+03 0. -1.
       -6    1    1    2    0  502  0.14621476382E+01  0.34786833264E+02 -0.47411123474E+02  0.18395805574E+03  0.17430000000E+03 0.  1.
</event>
<event>
 4 661  0.7533903E-01  0.9118800E+02  0.7818608E-02  0.1300000E+00
       21   -1    0    0  501  502  0.00000000000E+00  0.00000000000E+00  0.33921680674E+03  0.33921680674E+03  0.00000000000E+00 0. -1.
       21   -1    0    0  502  503  0.00000000000E+00  0.00000000000E+00 -0.54477670664E+03  0.54477670664E+03  0.00000000000E+00 0. -1.
        6    1    1    2  501    0 -0.96196934843E+02 -0.15376649455E+03  0.25564078215E+03  0.35865120189E+03  0.17430000000E+03 0. -1.
       -6    1    1    2    0  503  0.96196934843E+02  0.15376649455E+03 -0.46120068205E+03  0.52534231149E+03  0.17430000000E+03 0. -1.
</event>
<event>
 4 661  0.7533903E-01  0.9118800E+02  0.7818608E-02  0.1300000E+00
       21   -1    0    0  501  502  0.00000000000E+00  0.00000000000E+00  0.59216123053E+03  0.59216123053E+03  0.00000000000E+00 0.  1.
       21   -1    0    0  502  503  0.00000000000E+00  0.00000000000E+00 -0.52898573863E+02  0.52898573863E+02  0.00000000000E+00 0.  1.
        6    1    1    2  501    0 -0.16107860880E+02  0.20882176748E+02  0.24090622544E+03  0.29851604302E+03  0.17430000000E+03 0.  1.
       -6    1    1    2    0  503  0.16107860880E+02 -0.20882176748E+02  0.29835643123E+03  0.34654376137E+03  0.17430000000E+03 0.  1.
</event>
<event>
 4 661  0.7533903E-01  0.9118800E+02  0.7818608E-02  0.1300000E+00
       21   -1    0    0  502  503  0.00000000000E+00  0.00000000000E+00  0.17000890422E+04  0.17000890422E+04  0.00000000000E+00 0. -1.
       21   -1    0    0  501  502  0.00000000000E+00  0.00000000000E+00 -0.47829599759E+02  0.47829599759E+02  0.00000000000E+00 0. -1.
        6    1    1    2  501    0  0.38657006782E+02  0.14436591948E+02  0.14610029928E+03  0.23114620224E+03  0.17430000000E+03 0. -1.
       -6    1    1    2    0  503 -0.38657006782E+02 -0.14436591948E+02  0.15061591432E+04  0.15167724397E+04  0.17430000000E+03 0. -1.
</event>
<event>
 4 661  0.7533903E-01  0.9118800E+02  0.7818608E-02  0.1300000E+00
       21   -1    0    0  502  503  0.00000000000E+00  0.00000000000E+00  0.70793536788E+02  0.70793536788E+02  0.00000000000E+00 0.  1.
       21   -1    0    0  501  502  0.00000000000E+00  0.00000000000E+00 -0.11155986818E+04  0.11155986818E+04  0.00000000000E+00 0.  1.
        6    1    1    2  501    0 -0.32371634276E+02  0.91984307489E+02 -0.93972072643E+03  0.96071045025E+03  0.17430000000E+03 0.  1.
       -6    1    1    2    0  503  0.32371634276E+02 -0.91984307489E+02 -0.10508441857E+03  0.22568176833E+03  0.17430000000E+03 0.  1.
</event>
<event>
 4 661  0.7533903E-01  0.9118800E+02  0.7818608E-02  0.1300000E+00
       21   -1    0    0  502  503  0.00000000000E+00  0.00000000000E+00  0.34589931499E+03  0.34589931499E+03  0.00000000000E+00 0.  1.
       21   -1    0    0  501  502  0.00000000000E+00  0.00000000000E+00 -0.14754785232E+03  0.14754785232E+03  0.00000000000E+00 0.  1.
        6    1    1    2  501    0  0.75311487970E+02  0.11735019219E+03  0.61134232330E+02  0.23143200338E+03  0.17430000000E+03 0.  1.
       -6    1    1    2    0  503 -0.75311487970E+02 -0.11735019219E+03  0.13721723033E+03  0.26201516393E+03  0.17430000000E+03 0.  1.
</event>
<event>
 4 661  0.7533903E-01  0.9118800E+02  0.7818608E-02  0.1300000E+00
       21   -1    0    0  502  503  0.00000000000E+00  0.00000000000E+00  0.49367990875E+03  0.49367990875E+03  0.00000000000E+00 0. -1.
       21   -1    0    0  501  502  0.00000000000E+00  0.00000000000E+00 -0.11371149331E+03  0.11371149331E+03  0.00000000000E+00 0. -1.
        6    1    1    2  501    0 -0.12210994579E+03 -0.65516260665E+02  0.86220353969E+02  0.23878370696E+03  0.17430000000E+03 0. -1.
       -6    1    1    2    0  503  0.12210994579E+03  0.65516260665E+02  0.29374806147E+03  0.36860769510E+03  0.17430000000E+03 0. -1.
</event>
<event>
 4 661  0.7533903E-01  0.9118800E+02  0.7818608E-02  0.1300000E+00
       21   -1    0    0  502  503  0.00000000000E+00  0.00000000000E+00  0.15339450816E+04  0.15339450816E+04  0.00000000000E+00 0.  1.
       21   -1    0    0  501  502  0.00000000000E+00  0.00000000000E+00 -0.52242048432E+02  0.52242048432E+02  0.00000000000E+00 0.  1.
        6    1    1    2  501    0 -0.10674706467E+03 -0.14177843745E+03  0.36227087200E+03  0.43945049305E+03  0.17430000000E+03 0.  1.
       -6    1    1    2    0  503  0.10674706467E+03  0.14177843745E+03  0.11194321612E+04  0.11467366370E+04  0.17430000000E+03 0.  1.
</event>
<event>
 4 661  0.7533903E-01  0.9118800E+02  0.7818608E-02  0.1300000E+00
       21   -1    0    0  501  502  0.00000000000E+00  0.00000000000E+00  0.46630777273E+03  0.46630777273E+03  0.00000000000E+00 0. -1.
       21   -1    0    0  502  503  0.00000000000E+00  0.00000000000E+00 -0.11476295476E+03  0.11476295476E+03  0.00000000000E+00 0. -1.
        6    1    1    2  501    0 -0.10549086283E+03  0.56697120459E+02  0.29353107165E+03  0.36177875233E+03  0.17430000000E+03 0. -1.
       -6    1    1    2    0  503  0.10549086283E+03 -0.56697120459E+02  0.58013746326E+02  0.21929197516E+03  0.17430000000E+03 0. -1.
</event>
<event>
 4 661  0.7533903E-01  0.9118800E+02  0.7818608E-02  0.1300000E+00
       21   -1    0    0  501  502  0.00000000000E+00  0.00000000000E+00  0.33097944182E+03  0.33097944182E+03  0.00000000000E+00 0. -1.
       21   -1    0    0  502  503  0.00000000000E+00  0.00000000000E+00 -0.99927441701E+02  0.99927441701E+02  0.00000000000E+00 0. -1.
        6    1    1    2  501    0 -0.10710634290E+02 -0.71444770227E+01  0.17508828985E+03  0.24739070411E+03  0.17430000000E+03 0. -1.
       -6    1    1    2    0  503  0.10710634290E+02  0.71444770227E+01  0.55963710275E+02  0.18351617941E+03  0.17430000000E+03 0. -1.
</event>
<event>
 4 661  0.7533903E-01  0.9118800E+02  0.7818608E-02  0.1300000E+00
       21   -1    0    0  501  502  0.00000000000E+00  0.00000000000E+00  0.79335445135E+03  0.79335445135E+03  0.00000000000E+00 0. -1.
       21   -1    0    0  502  503  0.00000000000E+00  0.00000000000E+00 -0.78151747155E+02  0.78151747155E+02  0.00000000000E+00 0.  1.
        6    1    1    2  501    0  0.16634754109E+03 -0.53824411231E+02  0.30081466936E+03  0.38915103362E+03  0.17430000000E+03 0. -1.
       -6    1    1    2    0  503 -0.16634754109E+03  0.53824411231E+02  0.41438803483E+03  0.48235516488E+03  0.17430000000E+03 0.  1.
</event>
<event>
 4 661  0.7533903E-01  0.9118800E+02  0.7818608E-02  0.1300000E+00
       21   -1    0    0  502  503  0.00000000000E+00  0.00000000000E+00  0.51641854813E+03  0.51641854813E+03  0.00000000000E+00 0.  1.
       21   -1    0    0  501  502  0.00000000000E+00  0.00000000000E+00 -0.12672719230E+03  0.12672719230E+03  0.00000000000E+00 0. -1.
        6    1    1    2  501    0  0.10092820947E+03  0.91318441160E+01 -0.30862715879E+01  0.20164302397E+03  0.17430000000E+03 0. -1.
       -6    1    1    2    0  503 -0.10092820947E+03 -0.91318441160E+01  0.39277762742E+03  0.44150271647E+03  0.17430000000E+03 0.  1.
</event>
<event>
 4 661  0.7533903E-01  0.9118800E+02  0.7818608E-02  0.1300000E+00
       21   -1    0    0  502  503  0.00000000000E+00  0.00000000000E+00  0.17421881373E+03  0.17421881373E+03  0.00000000000E+00 0.  1.
       21   -1    0    0  501  502  0.00000000000E+00  0.00000000000E+00 -0.53237628811E+03  0.53237628811E+03  0.00000000000E+00 0. -1.
        6    1    1    2  501    0  0.17919667031E+03  0.16161837443E+03 -0.10445889699E+03  0.31547439954E+03  0.17430000000E+03 0.  1.
       -6    1    1    2    0  503 -0.17919667031E+03 -0.16161837443E+03 -0.25369857739E+03  0.39112070231E+03  0.17430000000E+03 0. -1.
</event>
<event>
 4 661  0.7533903E-01  0.9118800E+02  0.7818608E-02  0.1300000E+00
       21   -1    0    0  502  503  0.00000000000E+00  0.00000000000E+00  0.14059534855E+04  0.14059534855E+04  0.00000000000E+00 0.  1.
       21   -1    0    0  501  502  0.00000000000E+00  0.00000000000E+00 -0.37773949154E+02  0.37773949154E+02  0.00000000000E+00 0.  1.
        6    1    1    2  501    0  0.36261009763E+02 -0.11993676572E+03  0.42148854985E+03  0.47300399180E+03  0.17430000000E+03 0.  1.
       -6    1    1    2    0  503 -0.36261009763E+02  0.11993676572E+03  0.94669098653E+03  0.97072344289E+03  0.17430000000E+03 0.  1.
</event>
<event>
 4 661  0.7533903E-01  0.9118800E+02  0.7818608E-02  0.1300000E+00
       21   -1    0    0  502  503  0.00000000000E+00  0.00000000000E+00  0.49956298993E+03  0.49956298993E+03  0.00000000000E+00 0.  1.
       21   -1    0    0  501  502  0.00000000000E+00  0.00000000000E+00 -0.21048481129E+03  0.21048481129E+03  0.00000000000E+00 0.  1.
        6    1    1    2  501    0  0.21923175098E+03 -0.72524098112E+02 -0.15800843806E+02  0.28974551266E+03  0.17430000000E+03 0.  1.
       -6    1    1    2    0  503 -0.21923175098E+03  0.72524098112E+02  0.30487902244E+03  0.42030228856E+03  0.17430000000E+03 0.  1.
</event>
<event>
 4 661  0.7533903E-01  0.9118800E+02  0.7818608E-02  0.1300000E+00
       21   -1    0    0  502  503  0.00000000000E+00  0.00000000000E+00  0.33806235393E+02  0.33806235393E+02  0.00000000000E+00 0.  1.
       21   -1    0    0  501  502  0.00000000000E+00  0.00000000000E+00 -0.22064696524E+04  0.22064696524E+04  0.00000000000E+00 0.  1.
        6    1    1    2  501    0  0.78738804163E+01  0.29904034570E+01 -0.19480101304E+04  0.19558105477E+04  0.17430000000E+03 0.  1.
       -6    1    1    2    0  503 -0.78738804163E+01 -0.29904034570E+01 -0.22465328658E+03  0.28446534003E+03  0.17430000000E+03 0.  1.
</event>
<event>
 4 661  0.7533903E-01  0.9118800E+02  0.7818608E-02  0.1300000E+00
        1   -1    0    0  501    0  0.00000000000E+00  0.00000000000E+00  0.66752044665E+03  0.66752044665E+03  0.00000000000E+00 0.  1.
       -1   -1    0    0    0  502  0.00000000000E+00  0.00000000000E+00 -0.71206248404E+02  0.71206248404E+02  0.00000000000E+00 0. -1.
        6    1    1    2  501    0  0.86005651950E+02 -0.98625245737E+02  0.28931714134E+03  0.36222756596E+03  0.17430000000E+03 0. -1.
       -6    1    1    2    0  502 -0.86005651950E+02  0.98625245737E+02  0.30699705690E+03  0.37649912910E+03  0.17430000000E+03 0. -1.
</event>
<event>
 4 661  0.7533903E-01  0.9118800E+02  0.7818608E-02  0.1300000E+00
       21   -1    0    0  501  502  0.00000000000E+00  0.00000000000E+00  0.12608796505E+03  0.12608796505E+03  0.00000000000E+00 0.  1.
       21   -1    0    0  502  503  0.00000000000E+00  0.00000000000E+00 -0.71325994713E+03  0.71325994713E+03  0.00000000000E+00 0. -1.
        6    1    1    2  501    0 -0.26238806054E+02 -0.23918617199E+03 -0.35050867726E+03  0.45949463833E+03  0.17430000000E+03 0. -1.
       -6    1    1    2    0  503  0.26238806054E+02  0.23918617199E+03 -0.23666330482E+03  0.37985327386E+03  0.17430000000E+03 0.  1.
</event>
<event>
 4 661  0.7533903E-01  0.9118800E+02  0.7818608E-02  0.1300000E+00
       21   -1    0    0  501  502  0.00000000000E+00  0.00000000000E+00  0.13717428021E+03  0.13717428021E+03  0.00000000000E+00 0. -1.
       21   -1    0    0  502  503  0.00000000000E+00  0.00000000000E+00 -0.54193548409E+03  0.54193548409E+03  0.00000000000E+00 0.  1.
        6    1    1    2  501    0  0.23599887592E+02  0.10953276582E+03  0.18316906720E+02  0.20801533730E+03  0.17430000000E+03 0. -1.
       -6    1    1    2    0  503 -0.23599887592E+02 -0.10953276582E+03 -0.42307811060E+03  0.47109442700E+03  0.17430000000E+03 0.  1.
</event>
<event>
 4 661  0.7533903E-01  0.9118800E+02  0.7818608E-02  0.1300000E+00
       21   -1    0    0  502  503  0.00000000000E+00  0.00000000000E+00  0.18913274303E+03  0.18913274303E+03  0.00000000000E+00 0. -1.
       21   -1    0    0  501  502  0.00000000000E+00  0.00000000000E+00 -0.22543284419E+03  0.22543284419E+03  0.00000000000E+00 0.  1.
        6    1    1    2  501    0 -0.69218021631E+02  0.57775192946E+02 -0.82640532419E+02  0.21292969506E+03  0.17430000000E+03 0.  1.
       -6    1    1    2    0  503  0.69218021631E+02 -0.57775192946E+02  0.46340431263E+02  0.20163589216E+03  0.17430000000E+03 0. -1.
</event>
<event>
 4 661  0.7533903E-01  0.9118800E+02  0.7818608E-02  0.1300000E+00
       21   -1    0    0  501  502  0.00000000000E+00  0.00000000000E+00  0.19296762991E+04  0.19296762991E+04  0.00000000000E+00 0.  1.
       21   -1    0    0  502  503  0.00000000000E+00  0.00000000000E+00 -0.58773227924E+02  0.58773227924E+02  0.00000000000E+00 0. -1.
        6    1    1    2  501    0  0.89238325200E+02  0.20550368212E+03  0.14704322149E+04  0.14975802585E+04  0.17430000000E+03 0.  1.
       -6    1    1    2    0  503 -0.89238325200E+02 -0.20550368212E+03  0.40047085628E+03  0.49086926852E+03  0.17430000000E+03 0. -1.
</event>
<event>
 4 661  0.7533903E-01  0.9118800E+02  0.7818608E-02  0.1300000E+00
       21   -1    0    0  501  502  0.00000000000E+00  0.00000000000E+00  0.70297707524E+03  0.70297707524E+03  0.00000000000E+00 0.  1.
       21   -1    0    0  502  503  0.00000000000E+00  0.00000000000E+00 -0.97809142958E+02  0.97809142958E+02  0.00000000000E+00 0. -1.
        6    1    1    2  501    0 -0.10217079657E+03  0.94420987780E+02  0.51318701609E+03  0.55954945991E+03  0.17430000000E+03 0. -1.
       -6    1    1    2    0  503  0.10217079657E+03 -0.94420987780E+02  0.91980916190E+02  0.24123675828E+03  0.17430000000E+03 0. -1.
</event>
<event>
 4 661  0.7533903E-01  0.9118800E+02  0.7818608E-02  0.1300000E+00
       21   -1    0    0  502  503  0.00000000000E+00  0.00000000000E+00  0.17378554361E+03  0.17378554361E+03  0.00000000000E+00 0.  1.
       21   -1    0    0  501  502  0.00000000000E+00  0.00000000000E+00 -0.33928471429E+03  0.33928471429E+03  0.00000000000E+00 0. -1.
        6    1    1    2  501    0 -0.93104783204E+02  0.33247515443E+02 -0.22763801025E+03  0.30327125094E+03  0.17430000000E+03 0. -1.
       -6    1    1    2    0  503  0.93104783204E+02 -0.33247515443E+02  0.62138839568E+02  0.20979900696E+03  0.17430000000E+03 0.  1.
</event>
<event>
 4 661  0.7533903E-01  0.9118800E+02  0.7818608E-02  0.1300000E+00
       21   -1    0    0  502  503  0.00000000000E+00  0.00000000000E+00  0.51200901600E+03  0.51200901600E+03  0.00000000000E+00 0. -1.
       21   -1    0    0  501  502  0.00000000000E+00  0.00000000000E+00 -0.12810077584E+03  0.12810077584E+03  0.00000000000E+00 0. -1.
        6    1    1    2  501    0 -0.23978774139E+02 -0.50369256528E+02 -0.31936925832E+02  0.18577540430E+03  0.17430000000E+03 0. -1.
       -6    1    1    2    0  503  0.23978774139E+02  0.50369256528E+02  0.41584516600E+03  0.45433438754E+03  0.17430000000E+03 0. -1.
</event>
<event>
 4 661  0.7533903E-01  0.9118800E+02  0.7818608E-02  0.1300000E+00
       21   -1    0    0  501  502  0.00000000000E+00  0.00000000000E+00  0.84197804909E+03  0.84197804909E+03  0.00000000000E+00 0. -1.
       21   -1    0    0  502  503  0.00000000000E+00  0.00000000000E+00 -0.48762190933E+02  0.48762190933E+02  0.00000000000E+00 0. -1.
        6    1    1    2  501    0  0.46590482028E+02  0.26715729185E+02  0.59062860722E+03  0.61814807682E+03  0.17430000000E+03 0. -1.
       -6    1    1    2    0  503 -0.46590482028E+02 -0.26715729185E+02  0.20258725094E+03  0.27259216321E+03  0.17430000000E+03 0. -1.
</event>
<event>
 4 661  0.7533903E-01  0.9118800E+02  0.7818608E-02  0.1300000E+00
       21   -1    0    0  502  503  0.00000000000E+00  0.00000000000E+00  0.85130618989E+03  0.85130618989E+03  0.00000000000E+00 0. -1.
       21   -1    0    0  501  502  0.00000000000E+00  0.00000000000E+00 -0.83128492098E+02  0.83128492098E+02  0.00000000000E+00 0.  1.
        6    1    1    2  501    0  0.47644313898E+02  0.19348052114E+03  0.42997585368E+03  0.50494001372E+03  0.17430000000E+03 0. -1.
       -6    1    1    2    0  503 -0.47644313898E+02 -0.19348052114E+03  0.33820184411E+03  0.42949466827E+03  0.17430000000E+03 0. -1.
</event>
<event>
 4 661  0.7533903E-01  0.9118800E+02  0.7818608E-02  0.1300000E+00
       21   -1    0    0  502  503  0.00000000000E+00  0.00000000000E+00  0.12958622834E+04  0.12958622834E+04  0.00000000000E+00 0.  1.
       21   -1    0    0  501  502  0.00000000000E+00  0.00000000000E+00 -0.37940273525E+02  0.37940273525E+02  0.00000000000E+00 0.  1.
        6    1    1    2  501    0  0.12087603682E+03  0.53506551331E+02  0.73785870153E+03  0.76960374268E+03  0.17430000000E+03 0.  1.
       -6    1    1    2    0  503 -0.12087603682E+03 -0.53506551331E+02  0.52006330830E+03  0.56419881421E+03  0.17430000000E+03 0.  1.
</event>
<event>
 4 661  0.7533903E-01  0.9118800E+02  0.7818608E-02  0.1300000E+00
       21   -1    0    0  501  502  0.00000000000E+00  0.00000000000E+00  0.11172820545E+04  0.11172820545E+04  0.00000000000E+00 0. -1.
       21   -1    0    0  502  503  0.00000000000E+00  0.00000000000E+00 -0.71103468467E+02  0.71103468467E+02  0.00000000000E+00 0.  1.
        6    1    1    2  501    0 -0.23999715237E+02  0.13896823934E+03  0.88316879836E+03  0.91118372147E+03  0.17430000000E+03 0. -1.
       -6    1    1    2    0  503  0.23999715237E+02 -0.13896823934E+03  0.16300978767E+03  0.27720180150E+03  0.17430000000E+03 0.  1.
</event>
<event>
 4 661  0.7533903E-01  0.9118800E+02  0.7818608E-02  0.1300000E+00
       -1   -1    0    0    0  502  0.00000000000E+00  0.00000000000E+00  0.16396844064E+03  0.16396844064E+03  0.00000000000E+00 0. -1.
        1   -1    0    0  501    0  0.00000000000E+00  0.00000000000E+00 -0.52083192379E+03  0.52083192379E+03  0.00000000000E+00 0.  1.
        6    1    1    2  501    0 -0.22186101273E+03  0.18228434812E+02 -0.26504753782E+03  0.38753744608E+03  0.17430000000E+03 0.  1.
       -6    1    1    2    0  502  0.22186101273E+03 -0.18228434812E+02 -0.91815945329E+02  0.29726291835E+03  0.17430000000E+03 0. -1.
</event>
<event>
 4 661  0.7533903E-01  0.9118800E+02  0.7818608E-02  0.1300000E+00
       21   -1    0    0  501  502  0.00000000000E+00  0.00000000000E+00  0.69516625537E+02  0.69516625537E+02  0.00000000000E+00 0.  1.
       21   -1    0    0  502  503  0.00000000000E+00  0.00000000000E+00 -0.88380782647E+03  0.88380782647E+03  0.00000000000E+00 0.  1.
        6    1    1    2  501    0  0.10161177710E+03  0.92136396392E+02 -0.19434985120E+03  0.29490070100E+03  0.17430000000E+03 0.  1.
       -6    1    1    2    0  503 -0.10161177710E+03 -0.92136396392E+02 -0.61994134974E+03  0.65842375101E+03  0.17430000000E+03 0.  1.
</event>
<event>
 4 661  0.7533903E-01  0.9118800E+02  0.7818608E-02  0.1300000E+00
       21   -1    0    0  502  503  0.00000000000E+00  0.00000000000E+00  0.23189771458E+04  0.23189771458E+04  0.00000000000E+00 0.  1.
       21   -1    0    0  501  502  0.00000000000E+00  0.00000000000E+00 -0.18224519191E+02  0.18224519191E+02  0.00000000000E+00 0.  1.
        6    1    1    2  501    0  0.19348529570E+02 -0.34004011878E+02  0.57203597355E+03  0.59927980397E+03  0.17430000000E+03 0.  1.
       -6    1    1    2    0  503 -0.19348529570E+02  0.34004011878E+02  0.17287166530E+04  0.17379218610E+04  0.17430000000E+03 0.  1.
</event>
<event>
 4 661  0.7533903E-01  0.9118800E+02  0.7818608E-02  0.1300000E+00
       21   -1    0    0  501  502  0.00000000000E+00  0.00000000000E+00  0.62712306068E+02  0.62712306068E+02  0.00000000000E+00 0. -1.
       21   -1    0    0  502  503  0.00000000000E+00  0.00000000000E+00 -0.20955675722E+04  0.20955675722E+04  0.00000000000E+00 0. -1.
        6    1    1    2  501    0 -0.83670975539E+02  0.47751046423E+02 -0.11471385392E+03  0.22982765905E+03  0.17430000000E+03 0. -1.
       -6    1    1    2    0  503  0.83670975539E+02 -0.47751046423E+02 -0.19181414122E+04  0.19284522192E+04  0.17430000000E+03 0. -1.
</event>
<event>
 4 661  0.7533903E-01  0.9118800E+02  0.7818608E-02  0.1300000E+00
       21   -1    0    0  501  502  0.00000000000E+00  0.00000000000E+00  0.18008301246E+03  0.18008301246E+03  0.00000000000E+00 0. -1.
       21   -1    0    0  502  503  0.00000000000E+00  0.00000000000E+00 -0.19915771411E+03  0.19915771411E+03  0.00000000000E+00 0. -1.
        6    1    1    2  501    0  0.66276965826E+02 -0.16316981187E+02  0.19231465831E+02  0.18817337578E+03  0.17430000000E+03 0. -1.
       -6    1    1    2    0  503 -0.66276965826E+02  0.16316981187E+02 -0.38306167479E+02  0.19106735080E+03  0.17430000000E+03 0. -1.
</event>
<event>
 4 661  0.7533903E-01  0.9118800E+02  0.7818608E-02  0.1300000E+00
       -1   -1    0    0    0  502  0.00000000000E+00  0.00000000000E+00  0.88260384977E+03  0.88260384977E+03  0.00000000000E+00 0. -1.
        1   -1    0    0  501    0  0.00000000000E+00  0.00000000000E+00 -0.41375700524E+02  0.41375700524E+02  0.00000000000E+00 0.  1.
        6    1    1    2  501    0 -0.49737937019E+02  0.15908612898E+02  0.56180679362E+03  0.59053730593E+03  0.17430000000E+03 0. -1.
       -6    1    1    2    0  502  0.49737937019E+02 -0.15908612898E+02  0.27942135563E+03  0.33344224436E+03  0.17430000000E+03 0.  1.
</event>
<event>
 4 661  0.7533903E-01  0.9118800E+02  0.7818608E-02  0.1300000E+00
       21   -1    0    0  501  502  0.00000000000E+00  0.00000000000E+00  0.10666034768E+03  0.10666034768E+03  0.00000000000E+00 0.  1.
       21   -1    0    0  502  503  0.00000000000E+00  0.00000000000E+00 -0.49793691227E+03  0.49793691227E+03  0.00000000000E+00 0.  1.
        6    1    1    2  501    0  0.86629733124E+02 -0.11852289888E+03 -0.24064539215E+03  0.33142583331E+03  0.17430000000E+03 0.  1.
       -6    1    1    2    0  503 -0.86629733124E+02  0.11852289888E+03 -0.15063117245E+03  0.27317142664E+03  0.17430000000E+03 0.  1.
</event>
<event>
 4 661  0.7533903E-01  0.9118800E+02  0.7818608E-02  0.1300000E+00
       21   -1    0    0  502  503  0.00000000000E+00  0.00000000000E+00  0.26717513407E+03  0.26717513407E+03  0.00000000000E+00 0.  1.
       21   -1    0    0  501  502  0.00000000000E+00  0.00000000000E+00 -0.66757704185E+03  0.66757704185E+03  0.00000000000E+00 0.  1.
        6    1    1    2  501    0 -0.66352967094E+02  0.95405379181E+01 -0.61940182093E+03  0.64694114406E+03  0.17430000000E+03 0.  1.
       -6    1    1    2    0  503  0.66352967094E+02 -0.95405379181E+01  0.21899991315E+03  0.28781103187E+03  0.17430000000E+03 0.  1.
</event>
<event>
 4 661  0.7533903E-01  0.9118800E+02  0.7818608E-02  0.1300000E+00
       21   -1    0    0  501  502  0.00000000000E+00  0.00000000000E+00  0.36351174976E+03  0.36351174976E+03  0.00000000000E+00 0.  1.
       21   -1    0    0  502  503  0.00000000000E+00  0.00000000000E+00 -0.80167445994E+03  0.80167445994E+03  0.00000000000E+00 0. -1.
        6    1    1    2  501    0  0.19704512868E+03 -0.25647928088E+03  0.20775950865E+03  0.42208163629E+03  0.17430000000E+03 0.  1.
       -6    1    1    2    0  503 -0.19704512868E+03  0.25647928088E+03 -0.64592221882E+03  0.74310457341E+03  0.17430000000E+03 0. -1.
</event>
<event>
 4 661  0.7533903E-01  0.9118800E+02  0.7818608E-02  0.1300000E+00
       21   -1    0    0  501  502  0.00000000000E+00  0.00000000000E+00  0.14643691448E+03  0.14643691448E+03  0.00000000000E+00 0.  1.
       21   -1    0    0  502  503  0.00000000000E+00  0.00000000000E+00 -0.36502561595E+03  0.36502561595E+03  0.00000000000E+00 0.  1.
        6    1    1    2  501    0  0.10493868982E+03 -0.22782061540E+02  0.95366019445E+01  0.20494532863E+03  0.17430000000E+03 0.  1.
       -6    1    1    2    0  503 -0.10493868982E+03  0.22782061540E+02 -0.22812530341E+03  0.30651720181E+03  0.17430000000E+03 0.  1.
</event>
<event>
 4 661  0.7533903E-01  0.9118800E+02  0.7818608E-02  0.1300000E+00
       21   -1    0    0  501  502  0.00000000000E+00  0.00000000000E+00  0.12914874770E+04  0.12914874770E+04  0.00000000000E+00 0. -1.
       21   -1    0    0  502  503  0.00000000000E+00  0.00000000000E+00 -0.14568932015E+03  0.14568932015E+03  0.00000000000E+00 0.  1.
        6    1    1    2  501    0 -0.14547386466E+03 -0.10008116499E+03  0.11623290180E+04  0.11885150907E+04  0.17430000000E+03 0. -1.
       -6    1    1    2    0  503  0.14547386466E+03  0.10008116499E+03 -0.16530861083E+02  0.24866170644E+03  0.17430000000E+03 0.  1.
</event>
<event>
 4 661  0.7533903E-01  0.9118800E+02  0.7818608E-02  0.1300000E+00
       21   -1    0    0  502  503  0.00000000000E+00  0.00000000000E+00  0.15019039545E+03  0.15019039545E+03  0.00000000000E+00 0.  1.
       21   -1    0    0  501  502  0.00000000000E+00  0.00000000000E+00 -0.27398607570E+03  0.27398607570E+03  0.00000000000E+00 0.  1.
        6    1    1    2  501    0  0.64832179673E+02  0.45138523092E+02 -0.13225804638E+03  0.23262282481E+03  0.17430000000E+03 0.  1.
       -6    1    1    2    0  503 -0.64832179673E+02 -0.45138523092E+02  0.84623661247E+01  0.19155364635E+03  0.17430000000E+03 0.  1.
</event>
<event>
 4 661  0.7533903E-01  0.9118800E+02  0.7818608E-02  0.1300000E+00
       21   -1    0    0  501  502  0.00000000000E+00  0.00000000000E+00  0.57002102450E+03  0.57002102450E+03  0.00000000000E+00 0.  1.
       21   -1    0    0  502  503  0.00000000000E+00  0.00000000000E+00 -0.13810010694E+03  0.13810010694E+03  0.00000000000E+00 0.  1.
        6    1    1    2  501    0  0.85636171486E+02  0.89255484615E+02  0.44533808420E+03  0.49397023660E+03  0.17430000000E+03 0.  1.
       -6    1    1    2    0  503 -0.85636171486E+02 -0.89255484615E+02 -0.13417166638E+02  0.21415089484E+03  0.17430000000E+03 0.  1.
</event>
<event>
 4 661  0.7533903E-01  0.9118800E+02  0.7818608E-02  0.1300000E+00
       21   -1    0    0  501  502  0.00000000000E+00  0.00000000000E+00  0.89036237270E+03  0.89036237270E+03  0.00000000000E+00 0. -1.
       21   -1    0    0  502  503  0.00000000000E+00  0.00000000000E+00 -0.15872861319E+03  0.15872861319E+03  0.00000000000E+00 0.  1.
        6    1    1    2  501    0 -0.26981494878E+03  0.13349557168E+03  0.56473766560E+03  0.66327241401E+03  0.17430000000E+03 0. -1.
       -6    1    1    2    0  503  0.26981494878E+03 -0.13349557168E+03  0.16689609391E+03  0.38581857188E+03  0.17430000000E+03 0.  1.
</event>
<event>
 4 661  0.7533903E-01  0.9118800E+02  0.7818608E-02  0.1300000E+00
       21   -1    0    0  502  503  0.00000000000E+00  0.00000000000E+00  0.82293622411E+02  0.82293622411E+02  0.00000000000E+00 0.  1.
       21   -1    0    0  501  502  0.00000000000E+00  0.00000000000E+00 -0.11429363194E+04  0.11429363194E+04  0.00000000000E+00 0. -1.
        6    1    1    2  501    0 -0.17630976572E+03 -0.61892866904E+02 -0.86907819932E+03  0.90586603148E+03  0.17430000000E+03 0. -1.
       -6    1    1    2    0  503  0.17630976572E+03  0.61892866904E+02 -0.19156449770E+03  0.31936391036E+03  0.17430000000E+03 0.  1.
</event>
<event>
 4 661  0.7533903E-01  0.9118800E+02  0.7818608E-02  0.1300000E+00
        2   -1    0    0  501    0  0.00000000000E+00  0.00000000000E+00  0.90126159064E+03  0.90126159064E+03  0.00000000000E+00 0.  1.
       -2   -1    0    0    0  502  0.00000000000E+00  0.00000000000E+00 -0.35713468284E+02  0.35713468284E+02  0.00000000000E+00 0. -1.
        6    1    1    2  501    0  0.15528483060E+02  0.37139699989E+02  0.46840620200E+03  0.50140338169E+03  0.17430000000E+03 0. -1.
       -6    1    1    2    0  502 -0.15528483060E+02 -0.37139699989E+02  0.39714192036E+03  0.43557167723E+03  0.17430000000E+03 0. -1.
</event>
<event>
 4 661  0.7533903E-01  0.9118800E+02  0.7818608E-02  0.1300000E+00
       21   -1    0    0  502  503  0.00000000000E+00  0.00000000000E+00  0.24876677105E+02  0.24876677105E+02  0.00000000000E+00 0.  1.
       21   -1    0    0  501  502  0.00000000000E+00  0.00000000000E+00 -0.13684526622E+04  0.13684526622E+04  0.00000000000E+00 0.  1.
        6    1    1    2  501    0  0.26583330419E+02  0.44451300339E+02 -0.78995848551E+03  0.81061550096E+03  0.17430000000E+03 0. -1.
       -6    1    1    2    0  503 -0.26583330419E+02 -0.44451300339E+02 -0.55361749955E+03  0.58271383832E+03  0.17430000000E+03 0. -1.
</event>
<event>
 4 661  0.7533903E-01  0.9118800E+02  0.7818608E-02  0.1300000E+00
       21   -1    0    0  502  503  0.00000000000E+00  0.00000000000E+00  0.45386464278E+03  0.45386464278E+03  0.00000000000E+00 0. -1.
       21   -1    0    0  501  502  0.00000000000E+00  0.00000000000E+00 -0.12833092931E+03  0.12833092931E+03  0.00000000000E+00 0.  1.
        6    1    1    2  501    0 -0.76387926128E+02 -0.12797657250E+03  0.72092847795E+02  0.24039756045E+03  0.17430000000E+03 0.  1.
       -6    1    1    2    0  503  0.76387926128E+02  0.12797657250E+03  0.25344086567E+03  0.34179801164E+03  0.17430000000E+03 0. -1.
</event>
<event>
 4 661  0.7533903E-01  0.9118800E+02  0.7818608E-02  0.1300000E+00
       21   -1    0    0  502  503  0.00000000000E+00  0.00000000000E+00  0.78784030040E+03  0.78784030040E+03  0.00000000000E+00 0.  1.
       21   -1    0    0  501  502  0.00000000000E+00  0.00000000000E+00 -0.58582989608E+02  0.58582989608E+02  0.00000000000E+00 0.  1.
        6    1    1    2  501    0 -0.98666800685E+01  0.93906172795E+01  0.11867790277E+03  0.21130657745E+03  0.17430000000E+03 0.  1.
       -6    1    1    2    0  503  0.98666800685E+01 -0.93906172795E+01  0.61057940802E+03  0.63511671256E+03  0.17430000000E+03 0.  1.
</event>
<event>
 4 661  0.7533903E-01  0.9118800E+02  0.7818608E-02  0.1300000E+00
       21   -1    0    0  502  503  0.00000000000E+00  0.00000000000E+00  0.56657830441E+03  0.56657830441E+03  0.00000000000E+00 0.  1.
       21   -1    0    0  501  502  0.00000000000E+00  0.00000000000E+00 -0.49901213079E+03  0.49901213079E+03  0.00000000000E+00 0. -1.
        6    1    1    2  501    0 -0.19368717987E+03  0.23456902656E+03 -0.36678740421E+03  0.50739613888E+03  0.17430000000E+03 0. -1.
       -6    1    1    2    0  503  0.19368717987E+03 -0.23456902656E+03  0.43435357782E+03  0.55819429632E+03  0.17430000000E+03 0.  1.
</event>
<event>
 4 661  0.7533903E-01  0.9118800E+02  0.7818608E-02  0.1300000E+00
       21   -1    0    0  502  503  0.00000000000E+00  0.00000000000E+00  0.34919567394E+03  0.34919567394E+03  0.00000000000E+00 0.  1.
       21   -1    0    0  501  502  0.00000000000E+00  0.00000000000E+00 -0.23873632438E+03  0.23873632438E+03  0.00000000000E+00 0. -1.
        6    1    1    2  501    0  0.30238180513E+02 -0.15009189625E+03 -0.11976819198E+03  0.26108779115E+03  0.17430000000E+03 0. -1.
       -6    1    1    2    0  503 -0.30238180513E+02  0.15009189625E+03  0.23022754154E+03  0.32684420717E+03  0.17430000000E+03 0.  1.
</event>
<event>
 4 661  0.7533903E-01  0.9118800E+02  0.7818608E-02  0.1300000E+00
       21   -1    0    0  501  502  0.00000000000E+00  0.00000000000E+00  0.23709550801E+03  0.23709550801E+03  0.00000000000E+00 0.  1.
       21   -1    0    0  502  503  0.00000000000E+00  0.00000000000E+00 -0.28198993430E+03  0.28198993430E+03  0.00000000000E+00 0.  1.
        6    1    1    2  501    0 -0.40743098749E+02 -0.27710602872E+02  0.16277372856E+03  0.24352341636E+03  0.17430000000E+03 0.  1.
       -6    1    1    2    0  503  0.40743098749E+02  0.27710602872E+02 -0.20766815485E+03  0.27556202595E+03  0.17430000000E+03 0.  1.
</event>
<event>
 4 661  0.7533903E-01  0.9118800E+02  0.7818608E-02  0.1300000E+00
       21   -1    0    0  501  502  0.00000000000E+00  0.00000000000E+00  0.84358873448E+03  0.84358873448E+03  0.00000000000E+00 0.  1.
       21   -1    0    0  502  503  0.00000000000E+00  0.00000000000E+00 -0.75986134077E+02  0.75986134077E+02  0.00000000000E+00 0.  1.
        6    1    1    2  501    0 -0.46379154206E+02 -0.97669685066E+02  0.65334761360E+03  0.68478754919E+03  0.17430000000E+03 0.  1.
       -6    1    1    2    0  503  0.46379154206E+02  0.97669685066E+02  0.11425498680E+03  0.23478731936E+03  0.17430000000E+03 0.  1.
</event>
<event>
 4 661  0.7533903E-01  0.9118800E+02  0.7818608E-02  0.1300000E+00
        1   -1    0    0  501    0  0.00000000000E+00  0.00000000000E+00  0.31531022007E+03  0.31531022007E+03  0.00000000000E+00 0. -1.
       -1   -1    0    0    0  502  0.00000000000E+00  0.00000000000E+00 -0.33197946439E+03  0.33197946439E+03  0.00000000000E+00 0.  1.
        6    1    1    2  501    0 -0.23365287033E+03  0.53472145406E+02  0.12148937918E+03  0.32030156634E+03  0.17430000000E+03 0. -1.
       -6    1    1    2    0  502  0.23365287033E+03 -0.53472145406E+02 -0.13815862350E+03  0.32698811812E+03  0.17430000000E+03 0.  1.
</event>
<event>
 4 661  0.7533903E-01  0.9118800E+02  0.7818608E-02  0.1300000E+00
       21   -1    0    0  501  502  0.00000000000E+00  0.00000000000E+00  0.73130936739E+03  0.73130936739E+03  0.00000000000E+00 0.  1.
       21   -1    0    0  502  503  0.00000000000E+00  0.00000000000E+00 -0.89370347761E+02  0.89370347761E+02  0.00000000000E+00 0.  1.
        6    1    1    2  501    0  0.13360779616E+03  0.99062672354E+02  0.45822418942E+03  0.51770102764E+03  0.17430000000E+03 0.  1.
       -6    1    1    2    0  503 -0.13360779616E+03 -0.99062672354E+02  0.18371483021E+03  0.30297868752E+03  0.17430000000E+03 0.  1.
</event>
<event>
 4 661  0.7533903E-01  0.9118800E+02  0.7818608E-02  0.1300000E+00
       21   -1    0    0  501  502  0.00000000000E+00  0.00000000000E+00  0.29400161137E+02  0.29400161137E+02  0.00000000000E+00 0. -1.
       21   -1    0    0  502  503  0.00000000000E+00  0.00000000000E+00 -0.13493788740E+04  0.13493788740E+04  0.00000000000E+00 0. -1.
        6    1    1    2  501    0  0.14925523909E+02 -0.61823633314E+02 -0.40928661144E+03  0.44937840758E+03  0.17430000000E+03 0. -1.
       -6    1    1    2    0  503 -0.14925523909E+02  0.61823633314E+02 -0.91069210146E+03  0.92940062759E+03  0.17430000000E+03 0. -1.
</event>
<event>
 4 661  0.7533903E-01  0.9118800E+02  0.7818608E-02  0.1300000E+00
       21   -1    0    0  502  503  0.00000000000E+00  0.00000000000E+00  0.90063264575E+03  0.90063264575E+03  0.00000000000E+00 0. -1.
       21   -1    0    0  501  502  0.00000000000E+00  0.00000000000E+00 -0.92316045209E+02  0.92316045209E+02  0.00000000000E+00 0. -1.
        6    1    1    2  501    0  0.15538128186E+03 -0.76851836297E+02  0.14466880890E+03  0.28523516923E+03  0.17430000000E+03 0. -1.
       -6    1    1    2    0  503 -0.15538128186E+03  0.76851836297E+02  0.66364779164E+03  0.70771352173E+03  0.17430000000E+03 0. -1.
</event>
<event>
 4 661  0.7533903E-01  0.9118800E+02  0.7818608E-02  0.1300000E+00
       21   -1    0    0  502  503  0.00000000000E+00  0.00000000000E+00  0.15412394954E+03  0.15412394954E+03  0.00000000000E+00 0. -1.
       21   -1    0    0  501  502  0.00000000000E+00  0.00000000000E+00 -0.49213442750E+03  0.49213442750E+03  0.00000000000E+00 0.  1.
        6    1    1    2  501    0  0.15699982833E+03 -0.18528054579E+02 -0.33689807695E+03  0.41094164933E+03  0.17430000000E+03 0.  1.
       -6    1    1    2    0  503 -0.15699982833E+03  0.18528054579E+02 -0.11124010060E+01  0.23531672770E+03  0.17430000000E+03 0. -1.
</event>
<event>
 4 661  0.7533903E-01  0.9118800E+02  0.7818608E-02  0.1300000E+00
        1   -1    0    0  501    0  0.00000000000E+00  0.00000000000E+00  0.58415985619E+03  0.58415985619E+03  0.00000000000E+00 0.  1.
       -1   -1    0    0    0  502  0.00000000000E+00  0.00000000000E+00 -0.74220766087E+02  0.74220766087E+02  0.00000000000E+00 0. -1.
        6    1    1    2  501    0  0.11119721089E+03 -0.18071782137E+02  0.28165406421E+03  0.34985841552E+03  0.17430000000E+03 0. -1.
       -6    1    1    2    0  502 -0.11119721089E+03  0.18071782137E+02  0.22828502589E+03  0.30852220676E+03  0.17430000000E+03 0. -1.
</event>
<event>
 4 661  0.7533903E-01  0.9118800E+02  0.7818608E-02  0.1300000E+00
       21   -1    0    0  501  502  0.00000000000E+00  0.00000000000E+00  0.20988095225E+03  0.20988095225E+03  0.00000000000E+00 0.  1.
       21   -1    0    0  502  503  0.00000000000E+00  0.00000000000E+00 -0.28116863747E+03  0.28116863747E+03  0.00000000000E+00 0.  1.
        6    1    1    2  501    0 -0.49066643870E+02 -0.12237024813E+03  0.71555179328E+02  0.22996227268E+03  0.17430000000E+03 0.  1.
       -6    1    1    2    0  503  0.49066643870E+02  0.12237024813E+03 -0.14284286455E+03  0.26108731704E+03  0.17430000000E+03 0.  1.
</event>
<event>
 4 661  0.7533903E-01  0.9118800E+02  0.7818608E-02  0.1300000E+00
       21   -1    0    0  502  503  0.00000000000E+00  0.00000000000E+00  0.24341400558E+03  0.24341400558E+03  0.00000000000E+00 0.  1.
       21   -1    0    0  501  502  0.00000000000E+00  0.00000000000E+00 -0.36789598839E+03  0.36789598839E+03  0.00000000000E+00 0.  1.
        6    1    1    2  501    0  0.16120078745E+03  0.11942152930E+03  0.78265118802E+02  0.27704352430E+03  0.17430000000E+03 0.  1.
       -6    1    1    2    0  503 -0.16120078745E+03 -0.11942152930E+03 -0.20274710161E+03  0.33426646967E+03  0.17430000000E+03 0.  1.
</event>
<event>
 4 661  0.7533903E-01  0.9118800E+02  0.7818608E-02  0.1300000E+00
       21   -1    0    0  501  502  0.00000000000E+00  0.00000000000E+00  0.12423463936E+03  0.12423463936E+03  0.00000000000E+00 0.  1.
       21   -1    0    0  502  503  0.00000000000E+00  0.00000000000E+00 -0.36147063804E+03  0.36147063804E+03  0.00000000000E+00 0. -1.
        6    1    1    2  501    0  0.10747768894E+03 -0.28714709690E+02 -0.65471520741E+02  0.21689397917E+03  0.17430000000E+03 0.  1.
       -6    1    1    2    0  503 -0.10747768894E+03  0.28714709690E+02 -0.17176447794E+03  0.26881129823E+03  0.17430000000E+03 0. -1.
</event>
<event>
 4 661  0.7533903E-01  0.9118800E+02  0.7818608E-02  0.1300000E+00
       21   -1    0    0  502  503  0.00000000000E+00  0.00000000000E+00  0.12005150090E+04  0.12005150090E+04  0.00000000000E+00 0. -1.
       21   -1    0    0  501  502  0.00000000000E+00  0.00000000000E+00 -0.61267026865E+02  0.61267026865E+02  0.00000000000E+00 0. -1.
        6    1    1    2  501    0 -0.72408754920E+02 -0.18238526139E+03  0.72849341618E+03  0.77433233096E+03  0.17430000000E+03 0. -1.
       -6    1    1    2    0  503  0.72408754920E+02  0.18238526139E+03  0.41075456600E+03  0.48744970495E+03  0.17430000000E+03 0. -1.
</event>
<event>
 4 661  0.7533903E-01  0.9118800E+02  0.7818608E-02  0.1300000E+00
       21   -1    0    0  502  503  0.00000000000E+00  0.00000000000E+00  0.92906370645E+02  0.92906370645E+02  0.00000000000E+00 0. -1.
       21   -1    0    0  501  502  0.00000000000E+00  0.00000000000E+00 -0.88140594882E+03  0.88140594882E+03  0.00000000000E+00 0.  1.
        6    1    1    2  501    0  0.42226688401E+02  0.19576843649E+03 -0.57600956131E+03  0.63425222006E+03  0.17430000000E+03 0.  1.
       -6    1    1    2    0  503 -0.42226688401E+02 -0.19576843649E+03 -0.21249001687E+03  0.34006009940E+03  0.17430000000E+03 0.  1.
</event>
<event>
 4 661  0.7533903E-01  0.9118800E+02  0.7818608E-02  0.1300000E+00
       21   -1    0    0  502  503  0.00000000000E+00  0.00000000000E+00  0.12643539391E+03  0.12643539391E+03  0.00000000000E+00 0. -1.
       21   -1    0    0  501  502  0.00000000000E+00  0.00000000000E+00 -0.38553222336E+03  0.38553222336E+03  0.00000000000E+00 0. -1.
        6    1    1    2  501    0  0.33168648276E+02 -0.78552692265E+02 -0.74283885490E+01  0.19418124432E+03  0.17430000000E+03 0. -1.
       -6    1    1    2    0  503 -0.33168648276E+02  0.78552692265E+02 -0.25166844090E+03  0.31778637295E+03  0.17430000000E+03 0. -1.
</event>
<event>
 4 661  0.7533903E-01  0.9118800E+02  0.7818608E-02  0.1300000E+00
       21   -1    0    0  501  502  0.00000000000E+00  0.00000000000E+00  0.23696526695E+03  0.23696526695E+03  0.00000000000E+00 0.  1.
       21   -1    0    0  502  503  0.00000000000E+00  0.00000000000E+00 -0.69653597681E+03  0.69653597681E+03  0.00000000000E+00 0. -1.
        6    1    1    2  501    0  0.35680921534E+02 -0.11959698031E+03  0.16669585567E+03  0.27155950390E+03  0.17430000000E+03 0.  1.
       -6    1    1    2    0  503 -0.35680921534E+02  0.11959698031E+03 -0.62626656553E+03  0.66194173986E+03  0.17430000000E+03 0. -1.
</event>
<event>
 4 661  0.7533903E-01  0.9118800E+02  0.7818608E-02  0.1300000E+00
       21   -1    0    0  502  503  0.00000000000E+00  0.00000000000E+00  0.40797184838E+02  0.40797184838E+02  0.00000000000E+00 0. -1.
       21   -1    0    0  501  502  0.00000000000E+00  0.00000000000E+00 -0.11132692804E+04  0.11132692804E+04  0.00000000000E+00 0. -1.
        6    1    1    2  501    0 -0.48634014923E+02  0.58202756739E+02 -0.79713662072E+03  0.81948771217E+03  0.17430000000E+03 0. -1.
       -6    1    1    2    0  503  0.48634014923E+02 -0.58202756739E+02 -0.27533547484E+03  0.33457875307E+03  0.17430000000E+03 0. -1.
</event>
<event>
 4 661  0.7533903E-01  0.9118800E+02  0.7818608E-02  0.1300000E+00
       21   -1    0    0  502  503  0.00000000000E+00  0.00000000000E+00  0.69097659037E+03  0.69097659037E+03  0.00000000000E+00 0.  1.
       21   -1    0    0  501  502  0.00000000000E+00  0.00000000000E+00 -0.12353399600E+03  0.12353399600E+03  0.00000000000E+00 0.  1.
        6    1    1    2  501    0  0.13921848356E+03  0.18284674637E+03  0.21887883928E+03  0.36208169673E+03  0.17430000000E+03 0.  1.
       -6    1    1    2    0  503 -0.13921848356E+03 -0.18284674637E+03  0.34856375509E+03  0.45242888965E+03  0.17430000000E+03 0.  1.
</event>
<event>
 4 661  0.7533903E-01  0.9118800E+02  0.7818608E-02  0.1300000E+00
       -2   -1    0    0    0  502  0.00000000000E+00  0.00000000000E+00  0.22063387203E+02  0.22063387203E+02  0.00000000000E+00 0.  1.
        2   -1    0    0  501    0  0.00000000000E+00  0.00000000000E+00 -0.21699757622E+04  0.21699757622E+04  0.00000000000E+00 0. -1.
        6    1    1    2  501    0  0.89988075350E+02  0.23941061460E+02 -0.60338604290E+03  0.63492222744E+03  0.17430000000E+03 0.  1.
       -6    1    1    2    0  502 -0.89988075350E+02 -0.23941061460E+02 -0.15445263321E+04  0.15571169219E+04  0.17430000000E+03 0. -1.
</event>
<event>
 4 661  0.7533903E-01  0.9118800E+02  0.7818608E-02  0.1300000E+00
       21   -1    0    0  502  503  0.00000000000E+00  0.00000000000E+00  0.48550147231E+03  0.48550147231E+03  0.00000000000E+00 0.  1.
       21   -1    0    0  501  502  0.00000000000E+00  0.00000000000E+00 -0.10853903176E+03  0.10853903176E+03  0.00000000000E+00 0. -1.
        6    1    1    2  501    0 -0.10345230047E+03  0.10366266414E+03  0.15038181370E+03  0.27284337321E+03  0.17430000000E+03 0. -1.
       -6    1    1    2    0  503  0.10345230047E+03 -0.10366266414E+03  0.22658062684E+03  0.32119713086E+03  0.17430000000E+03 0.  1.
</event>
<event>
 4 661  0.7533903E-01  0.9118800E+02  0.7818608E-02  0.1300000E+00
        2   -1    0    0  501    0  0.00000000000E+00  0.00000000000E+00  0.48636254200E+03  0.48636254200E+03  0.00000000000E+00 0. -1.
       -2   -1    0    0    0  502  0.00000000000E+00  0.00000000000E+00 -0.13711166116E+03  0.13711166116E+03  0.00000000000E+00 0.  1.
        6    1    1    2  501    0  0.93556063464E+02 -0.91116764779E+01 -0.25452129539E+02  0.19965986216E+03  0.17430000000E+03 0.  1.
       -6    1    1    2    0  502 -0.93556063464E+02  0.91116764779E+01  0.37470301038E+03  0.42381434101E+03  0.17430000000E+03 0. -1.
</event>
<event>
 4 661  0.7533903E-01  0.9118800E+02  0.7818608E-02  0.1300000E+00
       21   -1    0    0  502  503  0.00000000000E+00  0.00000000000E+00  0.16981569223E+04  0.16981569223E+04  0.00000000000E+00 0. -1.
       21   -1    0    0  501  502  0.00000000000E+00  0.00000000000E+00 -0.46237861392E+02  0.46237861392E+02  0.00000000000E+00 0. -1.
        6    1    1    2  501    0 -0.11276148575E+03 -0.37802744041E+02  0.25206638024E+03  0.32872807938E+03  0.17430000000E+03 0. -1.
       -6    1    1    2    0  503  0.11276148575E+03  0.37802744041E+02  0.13998526807E+04  0.14156667044E+04  0.17430000000E+03 0. -1.
</event>
<event>
 4 661  0.7533903E-01  0.9118800E+02  0.7818608E-02  0.1300000E+00
       21   -1    0    0  501  502  0.00000000000E+00  0.00000000000E+00  0.10756858742E+03  0.10756858742E+03  0.00000000000E+00 0. -1.
       21   -1    0    0  502  503  0.00000000000E+00  0.00000000000E+00 -0.41200435925E+03  0.41200435925E+03  0.00000000000E+00 0. -1.
        6    1    1    2  501    0 -0.18992114539E+02 -0.11536395407E+03 -0.17244585982E+03  0.27163874334E+03  0.17430000000E+03 0. -1.
       -6    1    1    2    0  503  0.18992114539E+02  0.11536395407E+03 -0.13198991200E+03  0.24793420333E+03  0.17430000000E+03 0. -1.
</event>
<event>
 4 661  0.7533903E-01  0.9118800E+02  0.7818608E-02  0.1300000E+00
       21   -1    0    0  502  503  0.00000000000E+00  0.00000000000E+00  0.17572396617E+03  0.17572396617E+03  0.00000000000E+00 0.  1.
       21   -1    0    0  501  502  0.00000000000E+00  0.00000000000E+00 -0.51249831445E+03  0.51249831445E+03  0.00000000000E+00 0. -1.
        6    1    1    2  501    0 -0.11966165687E+03  0.16522427766E+03 -0.32248380739E+03  0.41951671013E+03  0.17430000000E+03 0. -1.
       -6    1    1    2    0  503  0.11966165687E+03 -0.16522427766E+03 -0.14290540889E+02  0.26870557049E+03  0.17430000000E+03 0.  1.
</event>
<event>
 4 661  0.7533903E-01  0.9118800E+02  0.7818608E-02  0.1300000E+00
       21   -1    0    0  502  503  0.00000000000E+00  0.00000000000E+00  0.28984640196E+03  0.28984640196E+03  0.00000000000E+00 0. -1.
       21   -1    0    0  501  502  0.00000000000E+00  0.00000000000E+00 -0.33734342032E+03  0.33734342032E+03  0.00000000000E+00 0. -1.
        6    1    1    2  501    0  0.29043227498E+02  0.53301230723E+02 -0.27688929550E+03  0.33276523590E+03  0.17430000000E+03 0. -1.
       -6    1    1    2    0  503 -0.29043227498E+02 -0.53301230723E+02  0.22939227713E+03  0.29442458638E+03  0.17430000000E+03 0. -1.
</event>
<event>
 4 661  0.7533903E-01  0.9118800E+02  0.7818608E-02  0.1300000E+00
       21   -1    0    0  501  502  0.00000000000E+00  0.00000000000E+00  0.68975715965E+03  0.68975715965E+03  0.00000000000E+00 0.  1.
       21   -1    0    0  502  503  0.00000000000E+00  0.00000000000E+00 -0.93050995370E+02  0.93050995370E+02  0.00000000000E+00 0. -1.
        6    1    1    2  501    0 -0.10470467289E+02  0.15667651690E+03  0.44609615359E+03  0.50402324339E+03  0.17430000000E+03 0.  1.
       -6    1    1    2    0  503  0.10470467289E+02 -0.15667651690E+03  0.15061001069E+03  0.27878491163E+03  0.17430000000E+03 0.  1.
</event>
<event>
 4 661  0.7533903E-01  0.9118800E+02  0.7818608E-02  0.1300000E+00
       21   -1    0    0  501  502  0.00000000000E+00  0.00000000000E+00  0.53550006199E+02  0.53550006199E+02  0.00000000000E+00 0.  1.
       21   -1    0    0  502  503  0.00000000000E+00  0.00000000000E+00 -0.19984649560E+04  0.19984649560E+04  0.00000000000E+00 0.  1.
        6    1    1    2  501    0 -0.43363318019E+01 -0.20205864135E+03 -0.37911104254E+03  0.46362934645E+03  0.17430000000E+03 0.  1.
       -6    1    1    2    0  503  0.43363318019E+01  0.20205864135E+03 -0.15658039072E+04  0.15883856157E+04  0.17430000000E+03 0.  1.
</event>
<event>
 4 661  0.7533903E-01  0.9118800E+02  0.7818608E-02  0.1300000E+00
       21   -1    0    0  501  502  0.00000000000E+00  0.00000000000E+00  0.15291883041E+03  0.15291883041E+03  0.00000000000E+00 0.  1.
       21   -1    0    0  502  503  0.00000000000E+00  0.00000000000E+00 -0.30401366770E+03  0.30401366770E+03  0.00000000000E+00 0.  1.
        6    1    1    2  501    0 -0.11598416273E+03 -0.40484441416E+02 -0.41745965209E+02  0.21728905083E+03  0.17430000000E+03 0.  1.
       -6    1    1    2    0  503  0.11598416273E+03  0.40484441416E+02 -0.10934887208E+03  0.23964344728E+03  0.17430000000E+03 0.  1.
</event>
<event>
 4 661  0.7533903E-01  0.9118800E+02  0.7818608E-02  0.1300000E+00
       21   -1    0    0  502  503  0.00000000000E+00  0.00000000000E+00  0.53201228643E+02  0.53201228643E+02  0.00000000000E+00 0.  1.
       21   -1    0    0  501  502  0.00000000000E+00  0.00000000000E+00 -0.66910537475E+03  0.66910537475E+03  0.00000000000E+00 0.  1.
        6    1    1    2  501    0  0.41013801748E+02 -0.11767611401E+02 -0.41950362457E+03  0.45627227577E+03  0.17430000000E+03 0.  1.
       -6    1    1    2    0  503 -0.41013801748E+02  0.11767611401E+02 -0.19640052154E+03  0.26603432762E+03  0.17430000000E+03 0.  1.
</event>
<event>
 4 661  0.7533903E-01  0.9118800E+02  0.7818608E-02  0.1300000E+00
       -1   -1    0    0    0  502  0.00000000000E+00  0.00000000000E+00  0.10371909273E+04  0.10371909273E+04  0.00000000000E+00 0. -1.
        1   -1    0    0  501    0  0.00000000000E+00  0.00000000000E+00 -0.34536670520E+03  0.34536670520E+03  0.00000000000E+00 0.  1.
        6    1    1    2  501    0  0.70745085514E+02  0.56765874280E+03  0.37395298934E+03  0.70531031726E+03  0.17430000000E+03 0. -1.
       -6    1    1    2    0  502 -0.70745085514E+02 -0.56765874280E+03  0.31787123276E+03  0.67724731525E+03  0.17430000000E+03 0.  1.
</event>
<event>
 4 661  0.7533903E-01  0.9118800E+02  0.7818608E-02  0.1300000E+00
       -2   -1    0    0    0  502  0.00000000000E+00  0.00000000000E+00  0.21758361102E+03  0.21758361102E+03  0.00000000000E+00 0.  1.
        2   -1    0    0  501    0  0.00000000000E+00  0.00000000000E+00 -0.16689084881E+03  0.16689084881E+03  0.00000000000E+00 0. -1.
        6    1    1    2  501    0  0.46925385958E+02  0.59213088380E+02  0.10246528031E+02  0.19024632196E+03  0.17430000000E+03 0. -1.
       -6    1    1    2    0  502 -0.46925385958E+02 -0.59213088380E+02  0.40446234180E+02  0.19422813787E+03  0.17430000000E+03 0.  1.
</event>
<event>
 4 661  0.7533903E-01  0.9118800E+02  0.7818608E-02  0.1300000E+00
       21   -1    0    0  502  503  0.00000000000E+00  0.00000000000E+00  0.14416786602E+03  0.14416786602E+03  0.00000000000E+00 0.  1.
       21   -1    0    0  501  502  0.00000000000E+00  0.00000000000E+00 -0.98691466653E+03  0.98691466653E+03  0.00000000000E+00 0.  1.
        6    1    1    2  501    0  0.55297653064E+02  0.16839411116E+03 -0.84672859604E+03  0.88246485055E+03  0.17430000000E+03 0.  1.
       -6    1    1    2    0  503 -0.55297653064E+02 -0.16839411116E+03  0.39817955284E+01  0.24861768200E+03  0.17430000000E+03 0.  1.
</event>
<event>
 4 661  0.7533903E-01  0.9118800E+02  0.7818608E-02  0.1300000E+00
       21   -1    0    0  501  502  0.00000000000E+00  0.00000000000E+00  0.14400719234E+03  0.14400719234E+03  0.00000000000E+00 0. -1.
       21   -1    0    0  502  503  0.00000000000E+00  0.00000000000E+00 -0.65328150355E+03  0.65328150355E+03  0.00000000000E+00 0.  1.
        6    1    1    2  501    0  0.13902302137E+02  0.14433991506E+03  0.13836645665E+02  0.22715463422E+03  0.17430000000E+03 0. -1.
       -6    1    1    2    0  503 -0.13902302137E+02 -0.14433991506E+03 -0.52311095687E+03  0.57013406167E+03  0.17430000000E+03 0.  1.
</event>
<event>
 4 661  0.7533903E-01  0.9118800E+02  0.7818608E-02  0.1300000E+00
       21   -1    0    0  501  502  0.00000000000E+00  0.00000000000E+00  0.85428974500E+03  0.85428974500E+03  0.00000000000E+00 0. -1.
       21   -1    0    0  502  503  0.00000000000E+00  0.00000000000E+00 -0.37695248447E+02  0.37695248447E+02  0.00000000000E+00 0. -1.
        6    1    1    2  501    0 -0.89345090883E+01 -0.35137263511E+02  0.46429807055E+03  0.49726013419E+03  0.17430000000E+03 0. -1.
       -6    1    1    2    0  503  0.89345090883E+01  0.35137263511E+02  0.35229642601E+03  0.39472485926E+03  0.17430000000E+03 0. -1.
</event>
<event>
 4 661  0.7533903E-01  0.9118800E+02  0.7818608E-02  0.1300000E+00
       21   -1    0    0  501  502  0.00000000000E+00  0.00000000000E+00  0.16852171615E+03  0.16852171615E+03  0.00000000000E+00 0.  1.
       21   -1    0    0  502  503  0.00000000000E+00  0.00000000000E+00 -0.23273428617E+03  0.23273428617E+03  0.00000000000E+00 0.  1.
        6    1    1    2  501    0  0.62933074701E+02  0.76541493513E+01  0.38234627974E+02  0.18937141989E+03  0.17430000000E+03 0.  1.
       -6    1    1    2    0  503 -0.62933074701E+02 -0.76541493513E+01 -0.10244719800E+03  0.21188458243E+03  0.17430000000E+03 0.  1.
</event>
<event>
 4 661  0.7533903E-01  0.9118800E+02  0.7818608E-02  0.1300000E+00
       21   -1    0    0  501  502  0.00000000000E+00  0.00000000000E+00  0.10279631071E+03  0.10279631071E+03  0.00000000000E+00 0.  1.
       21   -1    0    0  502  503  0.00000000000E+00  0.00000000000E+00 -0.35084529277E+03  0.35084529277E+03  0.00000000000E+00 0.  1.
        6    1    1    2  501    0 -0.56952171284E+01  0.18794558165E+02 -0.37078149448E+02  0.17927897278E+03  0.17430000000E+03 0. -1.
       -6    1    1    2    0  503  0.56952171284E+01 -0.18794558165E+02 -0.21097083261E+03  0.27436263071E+03  0.17430000000E+03 0. -1.
</event>
<event>
 4 661  0.7533903E-01  0.9118800E+02  0.7818608E-02  0.1300000E+00
       21   -1    0    0  502  503  0.00000000000E+00  0.00000000000E+00  0.10833126190E+04  0.10833126190E+04  0.00000000000E+00 0.  1.
       21   -1    0    0  501  502  0.00000000000E+00  0.00000000000E+00 -0.14867657769E+03  0.14867657769E+03  0.00000000000E+00 0. -1.
        6    1    1    2  501    0  0.18878464066E+03  0.68932882675E+02  0.61047723349E+01  0.26609987056E+03  0.17430000000E+03 0. -1.
       -6    1    1    2    0  503 -0.18878464066E+03 -0.68932882675E+02  0.92853126898E+03  0.96588932613E+03  0.17430000000E+03 0.  1.
</event>
<event>
 4 661  0.7533903E-01  0.9118800E+02  0.7818608E-02  0.1300000E+00
        1   -1    0    0  501    0  0.00000000000E+00  0.00000000000E+00  0.47181102977E+03  0.47181102977E+03  0.00000000000E+00 0.  1.
       -1   -1    0    0    0  502  0.00000000000E+00  0.00000000000E+00 -0.18273436622E+03  0.18273436622E+03  0.00000000000E+00 0. -1.
        6    1    1    2  501    0  0.95834126111E+01  0.17995689665E+03  0.31488956347E+03  0.40250745786E+03  0.17430000000E+03 0.  1.
       -6    1    1    2    0  502 -0.95834126111E+01 -0.17995689665E+03 -0.25812899923E+02  0.25203793812E+03  0.17430000000E+03 0. -1.
</event>
<event>
 4 661  0.7533903E-01  0.9118800E+02  0.7818608E-02  0.1300000E+00
       21   -1    0    0  501  502  0.00000000000E+00  0.00000000000E+00  0.61495365535E+03  0.61495365535E+03  0.00000000000E+00 0. -1.
       21   -1    0    0  502  503  0.00000000000E+00  0.00000000000E+00 -0.79415156798E+02  0.79415156798E+02  0.00000000000E+00 0. -1.
        6    1    1    2  501    0  0.10745072662E+02  0.12814197136E+03  0.19892380598E+03  0.29408670830E+03  0.17430000000E+03 0. -1.
       -6    1    1    2    0  503 -0.10745072662E+02 -0.12814197136E+03  0.33661469257E+03  0.40028210385E+03  0.17430000000E+03 0. -1.
</event>
<event>
 4 661  0.7533903E-01  0.9118800E+02  0.7818608E-02  0.1300000E+00
       21   -1    0    0  501  502  0.00000000000E+00  0.00000000000E+00  0.12294798972E+03  0.12294798972E+03  0.00000000000E+00 0. -1.
       21   -1    0    0  502  503  0.00000000000E+00  0.00000000000E+00 -0.31905439117E+03  0.31905439117E+03  0.00000000000E+00 0. -1.
        6    1    1    2  501    0 -0.11882745693E+02 -0.30435232431E+02  0.36293179053E+00  0.17733619128E+03  0.17430000000E+03 0. -1.
       -6    1    1    2    0  503  0.11882745693E+02  0.30435232431E+02 -0.19646933324E+03  0.26466618961E+03  0.17430000000E+03 0. -1.
</event>
<event>
 4 661  0.7533903E-01  0.9118800E+02  0.7818608E-02  0.1300000E+00
       21   -1    0    0  501  502  0.00000000000E+00  0.00000000000E+00  0.12334233888E+04  0.12334233888E+04  0.00000000000E+00 0. -1.
       21   -1    0    0  502  503  0.00000000000E+00  0.00000000000E+00 -0.92086749905E+02  0.92086749905E+02  0.00000000000E+00 0.  1.
        6    1    1    2  501    0 -0.96917053898E+02 -0.11808644850E+03  0.10518197230E+04  0.10770527120E+04  0.17430000000E+03 0. -1.
       -6    1    1    2    0  503  0.96917053898E+02  0.11808644850E+03  0.89516915845E+02  0.24845742669E+03  0.17430000000E+03 0.  1.
</event>
<event>
 4 661  0.7533903E-01  0.9118800E+02  0.7818608E-02  0.1300000E+00
       21   -1    0    0  502  503  0.00000000000E+00  0.00000000000E+00  0.15776019094E+03  0.15776019094E+03  0.00000000000E+00 0.  1.
       21   -1    0    0  501  502  0.00000000000E+00  0.00000000000E+00 -0.51889545376E+03  0.51889545376E+03  0.00000000000E+00 0. -1.
        6    1    1    2  501    0  0.17494525187E+03 -0.51537719113E+02 -0.20959023506E+02  0.25314373053E+03  0.17430000000E+03 0.  1.
       -6    1    1    2    0  503 -0.17494525187E+03  0.51537719113E+02 -0.34017623932E+03  0.42351191416E+03  0.17430000000E+03 0.  1.
</event>
<event>
 4 661  0.7533903E-01  0.9118800E+02  0.7818608E-02  0.1300000E+00
       21   -1    0    0  502  503  0.00000000000E+00  0.00000000000E+00  0.38307676356E+03  0.38307676356E+03  0.00000000000E+00 0. -1.
       21   -1    0    0  501  502  0.00000000000E+00  0.00000000000E+00 -0.97378546904E+02  0.97378546904E+02  0.00000000000E+00 0.  1.
        6    1    1    2  501    0 -0.13355877823E+02 -0.76167444102E+02  0.10465208414E+03  0.21751415524E+03  0.17430000000E+03 0.  1.
       -6    1    1    2    0  503  0.13355877823E+02  0.76167444102E+02  0.18104613252E+03  0.26294115523E+03  0.17430000000E+03 0. -1.
</event>
<event>
 4 661  0.7533903E-01  0.9118800E+02  0.7818608E-02  0.1300000E+00
       21   -1    0    0  501  502  0.00000000000E+00  0.00000000000E+00  0.95444146989E+02  0.95444146989E+02  0.00000000000E+00 0. -1.
       21   -1    0    0  502  503  0.00000000000E+00  0.00000000000E+00 -0.52402046168E+03  0.52402046168E+03  0.00000000000E+00 0. -1.
        6    1    1    2  501    0 -0.80697070864E+02 -0.77741626033E+01 -0.56003701921E+02  0.20022327407E+03  0.17430000000E+03 0. -1.
       -6    1    1    2    0  503  0.80697070864E+02  0.77741626033E+01 -0.37257261277E+03  0.41924133460E+03  0.17430000000E+03 0. -1.
</event>
<event>
 4 661  0.7533903E-01  0.9118800E+02  0.7818608E-02  0.1300000E+00
       21   -1    0    0  501  502  0.00000000000E+00  0.00000000000E+00  0.58558741791E+03  0.58558741791E+03  0.00000000000E+00 0. -1.
       21   -1    0    0  502  503  0.00000000000E+00  0.00000000000E+00 -0.10148200150E+03  0.10148200150E+03  0.00000000000E+00 0. -1.
        6    1    1    2  501    0  0.53564013041E+01  0.29765815387E+02  0.47841375450E+03  0.51007343128E+03  0.17430000000E+03 0. -1.
       -6    1    1    2    0  503 -0.53564013041E+01 -0.29765815387E+02  0.56916619036E+01  0.17699598813E+03  0.17430000000E+03 0. -1.
</event>
<event>
 4 661  0.7533903E-01  0.9118800E+02  0.7818608E-02  0.1300000E+00
       21   -1    0    0  501  502  0.00000000000E+00  0.00000000000E+00  0.13668195081E+03  0.13668195081E+03  0.00000000000E+00 0.  1.
       21   -1    0    0  502  503  0.00000000000E+00  0.00000000000E+00 -0.28966194864E+03  0.28966194864E+03  0.00000000000E+00 0. -1.
        6    1    1    2  501    0  0.50847590800E+02 -0.53584887666E+02 -0.14213331175E+03  0.23672597235E+03  0.17430000000E+03 0. -1.
       -6    1    1    2    0  503 -0.50847590800E+02  0.53584887666E+02 -0.10846686080E+02  0.18961792709E+03  0.17430000000E+03 0.  1.
</event>
<event>
 4 661  0.7533903E-01  0.9118800E+02  0.7818608E-02  0.1300000E+00
       21   -1    0    0  501  502  0.00000000000E+00  0.00000000000E+00  0.36367803153E+03  0.36367803153E+03  0.00000000000E+00 0.  1.
       21   -1    0    0  502  503  0.00000000000E+00  0.00000000000E+00 -0.17356579060E+03  0.17356579060E+03  0.00000000000E+00 0.  1.
        6    1    1    2  501    0  0.49657586027E+02  0.58072699368E+02  0.27042531048E+03  0.33067907828E+03  0.17430000000E+03 0.  1.
       -6    1    1    2    0  503 -0.49657586027E+02 -0.58072699368E+02 -0.80313069548E+02  0.20656474385E+03  0.17430000000E+03 0.  1.
</event>
<event>
 4 661  0.7533903E-01  0.9118800E+02  0.7818608E-02  0.1300000E+00
        2   -1    0    0  501    0  0.00000000000E+00  0.00000000000E+00  0.80401271316E+02  0.80401271316E+02  0.00000000000E+00 0. -1.
       -2   -1    0    0    0  502  0.00000000000E+00  0.00000000000E+00 -0.60712967760E+03  0.60712967760E+03  0.00000000000E+00 0.  1.
        6    1    1    2  501    0  0.64520189078E+02 -0.91427230239E+02 -0.14373235797E+03  0.25211361319E+03  0.17430000000E+03 0. -1.
       -6    1    1    2    0  502 -0.64520189078E+02  0.91427230239E+02 -0.38299604831E+03  0.43541733572E+03  0.17430000000E+03 0. -1.
</event>
<event>
 4 661  0.7533903E-01  0.9118800E+02  0.7818608E-02  0.1300000E+00
       21   -1    0    0  502  503  0.00000000000E+00  0.00000000000E+00  0.57131297282E+03  0.57131297282E+03  0.00000000000E+00 0. -1.
       21   -1    0    0  501  502  0.00000000000E+00  0.00000000000E+00 -0.14527867032E+03  0.14527867032E+03  0.00000000000E+00 0. -1.
        6    1    1    2  501    0  0.70778334494E+02 -0.13572315868E+03  0.54034720451E+00  0.23197226216E+03  0.17430000000E+03 0. -1.
       -6    1    1    2    0  503 -0.70778334494E+02  0.13572315868E+03  0.42549395529E+03  0.48461938098E+03  0.17430000000E+03 0. -1.
</event>
<event>
 4 661  0.7533903E-01  0.9118800E+02  0.7818608E-02  0.1300000E+00
       21   -1    0    0  501  502  0.00000000000E+00  0.00000000000E+00  0.54444503375E+03  0.54444503375E+03  0.00000000000E+00 0.  1.
       21   -1    0    0  502  503  0.00000000000E+00  0.00000000000E+00 -0.11879096533E+03  0.11879096533E+03  0.00000000000E+00 0. -1.
        6    1    1    2  501    0 -0.15280611880E+03  0.84994785911E+02  0.29236779196E+03  0.38266596314E+03  0.17430000000E+03 0.  1.
       -6    1    1    2    0  503  0.15280611880E+03 -0.84994785911E+02  0.13328627646E+03  0.28057003594E+03  0.17430000000E+03 0. -1.
</event>
<event>
 4 661  0.7533903E-01  0.9118800E+02  0.7818608E-02  0.1300000E+00
       21   -1    0    0  502  503  0.00000000000E+00  0.00000000000E+00  0.60861581838E+03  0.60861581838E+03  0.00000000000E+00 0. -1.
       21   -1    0    0  501  502  0.00000000000E+00  0.00000000000E+00 -0.69203960358E+02  0.69203960358E+02  0.00000000000E+00 0. -1.
        6    1    1    2  501    0 -0.11312357561E+02  0.75356018197E+02  0.14252136731E+03  0.23769587512E+03  0.17430000000E+03 0. -1.
       -6    1    1    2    0  503  0.11312357561E+02 -0.75356018197E+02  0.39689049072E+03  0.44012390362E+03  0.17430000000E+03 0. -1.
</event>
<event>
 4 661  0.7533903E-01  0.9118800E+02  0.7818608E-02  0.1300000E+00
        1   -1    0    0  501    0  0.00000000000E+00  0.00000000000E+00  0.25386713242E+03  0.25386713242E+03  0.00000000000E+00 0.  1.
       -1   -1    0    0    0  502  0.00000000000E+00  0.00000000000E+00 -0.24761250153E+03  0.24761250153E+03  0.00000000000E+00 0. -1.
        6    1    1    2  501    0  0.15146114048E+02  0.62730685940E+02  0.17141292814E+03  0.25283873450E+03  0.17430000000E+03 0.  1.
       -6    1    1    2    0  502 -0.15146114048E+02 -0.62730685940E+02 -0.16515829725E+03  0.24864089945E+03  0.17430000000E+03 0. -1.
</event>
<event>
 4 661  0.7533903E-01  0.9118800E+02  0.7818608E-02  0.1300000E+00
       -1   -1    0    0    0  502  0.00000000000E+00  0.00000000000E+00  0.52932455409E+02  0.52932455409E+02  0.00000000000E+00 0.  1.
        1   -1    0    0  501    0  0.00000000000E+00  0.00000000000E+00 -0.94694915516E+03  0.94694915516E+03  0.00000000000E+00 0. -1.
        6    1    1    2  501    0 -0.61665282486E+02 -0.21463533966E+02 -0.72484377450E+03  0.74835972485E+03  0.17430000000E+03 0. -1.
       -6    1    1    2    0  502  0.61665282486E+02  0.21463533966E+02 -0.16917292525E+03  0.25152188571E+03  0.17430000000E+03 0.  1.
</event>
<event>
 4 661  0.7533903E-01  0.9118800E+02  0.7818608E-02  0.1300000E+00
       21   -1    0    0  501  502  0.00000000000E+00  0.00000000000E+00  0.79130186126E+03  0.79130186126E+03  0.00000000000E+00 0. -1.
       21   -1    0    0  502  503  0.00000000000E+00  0.00000000000E+00 -0.44318668743E+02  0.44318668743E+02  0.00000000000E+00 0. -1.
        6    1    1    2  501    0 -0.41763035827E+01 -0.68096678653E+02  0.38656881486E+03  0.42950033502E+03  0.17430000000E+03 0. -1.
       -6    1    1    2    0  503  0.41763035827E+01  0.68096678653E+02  0.36041437766E+03  0.40612019499E+03  0.17430000000E+03 0. -1.
</event>
<event>
 4 661  0.7533903E-01  0.9118800E+02  0.7818608E-02  0.1300000E+00
       21   -1    0    0  501  502  0.00000000000E+00  0.00000000000E+00  0.10256594185E+03  0.10256594185E+03  0.00000000000E+00 0. -1.
       21   -1    0    0  502  503  0.00000000000E+00  0.00000000000E+00 -0.36026984627E+03  0.36026984627E+03  0.00000000000E+00 0. -1.
        6    1    1    2  501    0 -0.78056974443E+01  0.77267287969E+02 -0.10088255475E+03  0.21584471862E+03  0.17430000000E+03 0. -1.
       -6    1    1    2    0  503  0.78056974443E+01 -0.77267287969E+02 -0.15682134967E+03  0.24699106950E+03  0.17430000000E+03 0. -1.
</event>
<event>
 4 661  0.7533903E-01  0.9118800E+02  0.7818608E-02  0.1300000E+00
       21   -1    0    0  502  503  0.00000000000E+00  0.00000000000E+00  0.43353609951E+03  0.43353609951E+03  0.00000000000E+00 0. -1.
       21   -1    0    0  501  502  0.00000000000E+00  0.00000000000E+00 -0.96311118182E+02  0.96311118182E+02  0.00000000000E+00 0. -1.
        6    1    1    2  501    0  0.27352949353E+01 -0.96435078334E+02  0.22755156615E+03  0.30243579720E+03  0.17430000000E+03 0. -1.
       -6    1    1    2    0  503 -0.27352949353E+01  0.96435078334E+02  0.10967341518E+03  0.22741142049E+03  0.17430000000E+03 0. -1.
</event>
<event>
 4 661  0.7533903E-01  0.9118800E+02  0.7818608E-02  0.1300000E+00
       21   -1    0    0  502  503  0.00000000000E+00  0.00000000000E+00  0.18862959647E+03  0.18862959647E+03  0.00000000000E+00 0.  1.
       21   -1    0    0  501  502  0.00000000000E+00  0.00000000000E+00 -0.46477886814E+03  0.46477886814E+03  0.00000000000E+00 0. -1.
        6    1    1    2  501    0 -0.14089169913E+03 -0.14604216238E+03 -0.27812955496E+03  0.38589548251E+03  0.17430000000E+03 0. -1.
       -6    1    1    2    0  503  0.14089169913E+03  0.14604216238E+03  0.19802832912E+01  0.26751298211E+03  0.17430000000E+03 0.  1.
</event>
<event>
 4 661  0.7533903E-01  0.9118800E+02  0.7818608E-02  0.1300000E+00
       21   -1    0    0  502  503  0.00000000000E+00  0.00000000000E+00  0.46887904909E+02  0.46887904909E+02  0.00000000000E+00 0.  1.
       21   -1    0    0  501  502  0.00000000000E+00  0.00000000000E+00 -0.14011680065E+04  0.14011680065E+04  0.00000000000E+00 0.  1.
        6    1    1    2  501    0  0.94257757009E+02  0.16036014521E+03 -0.75280121322E+03  0.79478931646E+03  0.17430000000E+03 0.  1.
       -6    1    1    2    0  503 -0.94257757009E+02 -0.16036014521E+03 -0.60147888839E+03  0.65326659497E+03  0.17430000000E+03 0.  1.
</event>
<event>
 4 661  0.7533903E-01  0.9118800E+02  0.7818608E-02  0.1300000E+00
       21   -1    0    0  502  503  0.00000000000E+00  0.00000000000E+00  0.90425403542E+03  0.90425403542E+03  0.00000000000E+00 0.  1.
       21   -1    0    0  501  502  0.00000000000E+00  0.00000000000E+00 -0.46249167730E+02  0.46249167730E+02  0.00000000000E+00 0.  1.
        6    1    1    2  501    0 -0.53740661244E+01  0.10364098166E+03  0.48916409615E+03  0.52955862435E+03  0.17430000000E+03 0.  1.
       -6    1    1    2    0  503  0.53740661244E+01 -0.10364098166E+03  0.36884077154E+03  0.42094457879E+03  0.17430000000E+03 0.  1.
</event>
<event>
 4 661  0.7533903E-01  0.9118800E+02  0.7818608E-02  0.1300000E+00
       21   -1    0    0  501  502  0.00000000000E+00  0.00000000000E+00  0.16921011484E+04  0.16921011484E+04  0.00000000000E+00 0.  1.
       21   -1    0    0  502  503  0.00000000000E+00  0.00000000000E+00 -0.13811721201E+03  0.13811721201E+03  0.00000000000E+00 0. -1.
        6    1    1    2  501    0  0.15788317754E+03  0.23586692204E+02  0.15752731931E+04  0.15929060087E+04  0.17430000000E+03 0.  1.
       -6    1    1    2    0  503 -0.15788317754E+03 -0.23586692204E+02 -0.21289256716E+02  0.23731235166E+03  0.17430000000E+03 0. -1.
</event>
<event>
 4 661  0.7533903E-01  0.9118800E+02  0.7818608E-02  0.1300000E+00
       21   -1    0    0  502  503  0.00000000000E+00  0.00000000000E+00  0.14859522008E+03  0.14859522008E+03  0.00000000000E+00 0. -1.
       21   -1    0    0  501  502  0.00000000000E+00  0.00000000000E+00 -0.31123929325E+03  0.31123929325E+03  0.00000000000E+00 0. -1.
        6    1    1    2  501    0 -0.82556576694E+01 -0.77433645247E+02  0.24536242635E+02  0.19247504384E+03  0.17430000000E+03 0. -1.
       -6    1    1    2    0  503  0.82556576694E+01  0.77433645247E+02 -0.18718031580E+03  0.26735946948E+03  0.17430000000E+03 0. -1.
</event>
<event>
 4 661  0.7533903E-01  0.9118800E+02  0.7818608E-02  0.1300000E+00
       21   -1    0    0  502  503  0.00000000000E+00  0.00000000000E+00  0.11408311749E+04  0.11408311749E+04  0.00000000000E+00 0.  1.
       21   -1    0    0  501  502  0.00000000000E+00  0.00000000000E+00 -0.38371477123E+02  0.38371477123E+02  0.00000000000E+00 0.  1.
        6    1    1    2  501    0 -0.22278209372E+02  0.93786871499E+01  0.23227560174E+03  0.29140474181E+03  0.17430000000E+03 0.  1.
       -6    1    1    2    0  503  0.22278209372E+02 -0.93786871499E+01  0.87018409607E+03  0.88779791025E+03  0.17430000000E+03 0.  1.
</event>
<event>
 4 661  0.7533903E-01  0.9118800E+02  0.7818608E-02  0.1300000E+00
       21   -1    0    0  502  503  0.00000000000E+00  0.00000000000E+00  0.11226881270E+03  0.11226881270E+03  0.00000000000E+00 0. -1.
       21   -1    0    0  501  502  0.00000000000E+00  0.00000000000E+00 -0.46712588887E+03  0.46712588887E+03  0.00000000000E+00 0. -1.
        6    1    1    2  501    0  0.13959097210E+02 -0.73331649164E+01 -0.36426906863E+03  0.40413002371E+03  0.17430000000E+03 0. -1.
       -6    1    1    2    0  503 -0.13959097210E+02  0.73331649164E+01  0.94119924539E+01  0.17526467786E+03  0.17430000000E+03 0. -1.
</event>
<event>
 4 661  0.7533903E-01  0.9118800E+02  0.7818608E-02  0.1300000E+00
       21   -1    0    0  502  503  0.00000000000E+00  0.00000000000E+00  0.10914460093E+03  0.10914460093E+03  0.00000000000E+00 0. -1.
       21   -1    0    0  501  502  0.00000000000E+00  0.00000000000E+00 -0.69436929499E+03  0.69436929499E+03  0.00000000000E+00 0.  1.
        6    1    1    2  501    0 -0.13883054877E+03 -0.67242634845E+02 -0.50714884817E+03  0.55801069650E+03  0.17430000000E+03 0.  1.
       -6    1    1    2    0  503  0.13883054877E+03  0.67242634845E+02 -0.78075845883E+02  0.24550319941E+03  0.17430000000E+03 0. -1.
</event>
<event>
 4 661  0.7533903E-01  0.9118800E+02  0.7818608E-02  0.1300000E+00
       21   -1    0    0  502  503  0.00000000000E+00  0.00000000000E+00  0.11624785304E+03  0.11624785304E+03  0.00000000000E+00 0. -1.
       21   -1    0    0  501  502  0.00000000000E+00  0.00000000000E+00 -0.37214418467E+03  0.37214418467E+03  0.00000000000E+00 0.  1.
        6    1    1    2  501    0 -0.87899855364E+01  0.81547804949E+02 -0.22004394806E+03  0.29245023067E+03  0.17430000000E+03 0.  1.
       -6    1    1    2    0  503  0.87899855364E+01 -0.81547804949E+02 -0.35852383571E+02  0.19594180704E+03  0.17430000000E+03 0. -1.
</event>
<event>
 4 661  0.7533903E-01  0.9118800E+02  0.7818608E-02  0.1300000E+00
       -2   -1    0    0    0  502  0.00000000000E+00  0.00000000000E+00  0.22414774995E+02  0.22414774995E+02  0.00000000000E+00 0. -1.
        2   -1    0    0  501    0  0.00000000000E+00  0.00000000000E+00 -0.34721730133E+04  0.34721730133E+04  0.00000000000E+00 0.  1.
        6    1    1    2  501    0 -0.12205903919E+03  0.29245234726E+02 -0.60985257965E+03  0.64657122709E+03  0.17430000000E+03 0. -1.
       -6    1    1    2    0  502  0.12205903919E+03 -0.29245234726E+02 -0.28399056586E+04  0.28480165612E+04  0.17430000000E+03 0.  1.
</event>
<event>
 4 661  0.7533903E-01  0.9118800E+02  0.7818608E-02  0.1300000E+00
       21   -1    0    0  501  502  0.00000000000E+00  0.00000000000E+00  0.28621003389E+02  0.28621003389E+02  0.00000000000E+00 0. -1.
       21   -1    0    0  502  503  0.00000000000E+00  0.00000000000E+00 -0.13657049772E+04  0.13657049772E+04  0.00000000000E+00 0. -1.
        6    1    1    2  501    0 -0.30512570885E+02  0.45268069491E+01 -0.35799444938E+03  0.39936452615E+03  0.17430000000E+03 0. -1.
       -6    1    1    2    0  503  0.30512570885E+02 -0.45268069491E+01 -0.97908952444E+03  0.99496145445E+03  0.17430000000E+03 0. -1.
</event>
<event>
 4 661  0.7533903E-01  0.9118800E+02  0.7818608E-02  0.1300000E+00
       21   -1    0    0  502  503  0.00000000000E+00  0.00000000000E+00  0.20452394044E+04  0.20452394044E+04  0.00000000000E+00 0. -1.
       21   -1    0    0  501  502  0.00000000000E+00  0.00000000000E+00 -0.29022013832E+02  0.29022013832E+02  0.00000000000E+00 0. -1.
        6    1    1    2  501    0 -0.73631244098E+02 -0.10869072521E+03  0.54683926522E+03  0.58876897493E+03  0.17430000000E+03 0. -1.
       -6    1    1    2    0  503  0.73631244098E+02  0.10869072521E+03  0.14693781253E+04  0.14854924433E+04  0.17430000000E+03 0. -1.
</event>
<event>
 4 661  0.7533903E-01  0.9118800E+02  0.7818608E-02  0.1300000E+00
       21   -1    0    0  501  502  0.00000000000E+00  0.00000000000E+00  0.28736875339E+03  0.28736875339E+03  0.00000000000E+00 0.  1.
       21   -1    0    0  502  503  0.00000000000E+00  0.00000000000E+00 -0.25009994525E+03  0.25009994525E+03  0.00000000000E+00 0.  1.
        6    1    1    2  501    0 -0.85365390648E+02  0.11987581297E+03  0.15980373881E+03  0.27852322236E+03  0.17430000000E+03 0.  1.
       -6    1    1    2    0  503  0.85365390648E+02 -0.11987581297E+03 -0.12253493067E+03  0.25894547629E+03  0.17430000000E+03 0.  1.
</event>
<event>
 4 661  0.7533903E-01  0.9118800E+02  0.7818608E-02  0.1300000E+00
       21   -1    0    0  501  502  0.00000000000E+00  0.00000000000E+00  0.50447072442E+03  0.50447072442E+03  0.00000000000E+00 0. -1.
       21   -1    0    0  502  503  0.00000000000E+00  0.00000000000E+00 -0.36055095746E+03  0.36055095746E+03  0.00000000000E+00 0.  1.
        6    1    1    2  501    0 -0.12078974837E+03  0.13597530178E+03  0.42095705447E+03  0.49057596529E+03  0.17430000000E+03 0. -1.
       -6    1    1    2    0  503  0.12078974837E+03 -0.13597530178E+03 -0.27703728752E+03  0.37444571660E+03  0.17430000000E+03 0.  1.
</event>
<event>
 4 661  0.7533903E-01  0.9118800E+02  0.7818608E-02  0.1300000E+00
       21   -1    0    0  502  503  0.00000000000E+00  0.00000000000E+00  0.42988112289E+03  0.42988112289E+03  0.00000000000E+00 0. -1.
       21   -1    0    0  501  502  0.00000000000E+00  0.00000000000E+00 -0.99452472500E+02  0.99452472500E+02  0.00000000000E+00 0. -1.
        6    1    1    2  501    0 -0.51241500509E+01 -0.93606336205E+01  0.23493430793E+02  0.17619963015E+03  0.17430000000E+03 0. -1.
       -6    1    1    2    0  503  0.51241500509E+01  0.93606336205E+01  0.30693521960E+03  0.35313396524E+03  0.17430000000E+03 0. -1.
</event>
<event>
 4 661  0.7533903E-01  0.9118800E+02  0.7818608E-02  0.1300000E+00
       21   -1    0    0  501  502  0.00000000000E+00  0.00000000000E+00  0.48075169511E+03  0.48075169511E+03  0.00000000000E+00 0. -1.
       21   -1    0    0  502  503  0.00000000000E+00  0.00000000000E+00 -0.39105659868E+03  0.39105659868E+03  0.00000000000E+00 0.  1.
        6    1    1    2  501    0 -0.11223040877E+03  0.13462959780E+03  0.40297805356E+03  0.47275003428E+03  0.17430000000E+03 0. -1.
       -6    1    1    2    0  503  0.11223040877E+03 -0.13462959780E+03 -0.31328295713E+03  0.39905825952E+03  0.17430000000E+03 0.  1.
</event>
<event>
 4 661  0.7533903E-01  0.9118800E+02  0.7818608E-02  0.1300000E+00
       21   -1    0    0  501  502  0.00000000000E+00  0.00000000000E+00  0.96264273370E+02  0.96264273370E+02  0.00000000000E+00 0.  1.
       21   -1    0    0  502  503  0.00000000000E+00  0.00000000000E+00 -0.21798597620E+04  0.21798597620E+04  0.00000000000E+00 0.  1.
        6    1    1    2  501    0  0.22390683279E+03 -0.63341949766E+02 -0.16232629527E+03  0.33298166392E+03  0.17430000000E+03 0.  1.
       -6    1    1    2    0  503 -0.22390683279E+03  0.63341949766E+02 -0.19212691933E+04  0.19431423714E+04  0.17430000000E+03 0.  1.
</event>
<event>
 4 661  0.7533903E-01  0.9118800E+02  0.7818608E-02  0.1300000E+00
       21   -1    0    0  502  503  0.00000000000E+00  0.00000000000E+00  0.38750537039E+03  0.38750537039E+03  0.00000000000E+00 0.  1.
       21   -1    0    0  501  502  0.00000000000E+00  0.00000000000E+00 -0.63626910270E+03  0.63626910270E+03  0.00000000000E+00 0.  1.
        6    1    1    2  501    0 -0.78537854204E+02  0.63422701271E+02 -0.59226185907E+03  0.62557592128E+03  0.17430000000E+03 0.  1.
       -6    1    1    2    0  503  0.78537854204E+02 -0.63422701271E+02  0.34349812675E+03  0.39819855181E+03  0.17430000000E+03 0.  1.
</event>
<event>
 4 661  0.7533903E-01  0.9118800E+02  0.7818608E-02  0.1300000E+00
       21   -1    0    0  502  503  0.00000000000E+00  0.00000000000E+00  0.75138447017E+03  0.75138447017E+03  0.00000000000E+00 0. -1.
       21   -1    0    0  501  502  0.00000000000E+00  0.00000000000E+00 -0.97622306773E+02  0.97622306773E+02  0.00000000000E+00 0. -1.
        6    1    1    2  501    0  0.13919505449E+03  0.52808280039E+02  0.10078938504E+03  0.25040560651E+03  0.17430000000E+03 0. -1.
       -6    1    1    2    0  503 -0.13919505449E+03 -0.52808280039E+02  0.55297277836E+03  0.59860117043E+03  0.17430000000E+03 0. -1.
</event>
<event>
 4 661  0.7533903E-01  0.9118800E+02  0.7818608E-02  0.1300000E+00
       -3   -1    0    0    0  502  0.00000000000E+00  0.00000000000E+00  0.72184270845E+02  0.72184270845E+02  0.00000000000E+00 0. -1.
        3   -1    0    0  501    0  0.00000000000E+00  0.00000000000E+00 -0.18902536274E+04  0.18902536274E+04  0.00000000000E+00 0.  1.
        6    1    1    2  501    0  0.10756244503E+03 -0.27330390105E+03 -0.53524060138E+03  0.63492337591E+03  0.17430000000E+03 0.  1.
       -6    1    1    2    0  502 -0.10756244503E+03  0.27330390105E+03 -0.12828287552E+04  0.13275145223E+04  0.17430000000E+03 0. -1.
</event>
<event>
 4 661  0.7533903E-01  0.9118800E+02  0.7818608E-02  0.1300000E+00
       21   -1    0    0  501  502  0.00000000000E+00  0.00000000000E+00  0.28177993291E+03  0.28177993291E+03  0.00000000000E+00 0.  1.
       21   -1    0    0  502  503  0.00000000000E+00  0.00000000000E+00 -0.12885794863E+03  0.12885794863E+03  0.00000000000E+00 0. -1.
        6    1    1    2  501    0 -0.23028484394E+02  0.54122357726E+02  0.13000706077E+03  0.22525955373E+03  0.17430000000E+03 0.  1.
       -6    1    1    2    0  503  0.23028484394E+02 -0.54122357726E+02  0.22914923515E+02  0.18537832780E+03  0.17430000000E+03 0.  1.
</event>
<event>
 4 661  0.7533903E-01  0.9118800E+02  0.7818608E-02  0.1300000E+00
       21   -1    0    0  501  502  0.00000000000E+00  0.00000000000E+00  0.14819162763E+03  0.14819162763E+03  0.00000000000E+00 0. -1.
       21   -1    0    0  502  503  0.00000000000E+00  0.00000000000E+00 -0.43188983637E+03  0.43188983637E+03  0.00000000000E+00 0.  1.
        6    1    1    2  501    0  0.17136313167E+03  0.59770770376E+02 -0.17183523558E+03  0.30470593377E+03  0.17430000000E+03 0. -1.
       -6    1    1    2    0  503 -0.17136313167E+03 -0.59770770376E+02 -0.11186297316E+03  0.27537553023E+03  0.17430000000E+03 0. -1.
</event>
<event>
 4 661  0.7533903E-01  0.9118800E+02  0.7818608E-02  0.1300000E+00
       21   -1    0    0  501  502  0.00000000000E+00  0.00000000000E+00  0.36900531972E+03  0.36900531972E+03  0.00000000000E+00 0. -1.
       21   -1    0    0  502  503  0.00000000000E+00  0.00000000000E+00 -0.11584147777E+03  0.11584147777E+03  0.00000000000E+00 0.  1.
        6    1    1    2  501    0  0.54255038470E+02  0.88855337984E+02  0.17239719833E+03  0.26634594849E+03  0.17430000000E+03 0. -1.
       -6    1    1    2    0  503 -0.54255038470E+02 -0.88855337984E+02  0.80766643625E+02  0.21850084899E+03  0.17430000000E+03 0.  1.
</event>
<event>
 4 661  0.7533903E-01  0.9118800E+02  0.7818608E-02  0.1300000E+00
       21   -1    0    0  502  503  0.00000000000E+00  0.00000000000E+00  0.59200547733E+03  0.59200547733E+03  0.00000000000E+00 0.  1.
       21   -1    0    0  501  502  0.00000000000E+00  0.00000000000E+00 -0.15887839535E+03  0.15887839535E+03  0.00000000000E+00 0.  1.
        6    1    1    2  501    0 -0.10812172579E+03  0.85085124285E+01 -0.62362098298E+02  0.21455121457E+03  0.17430000000E+03 0.  1.
       -6    1    1    2    0  503  0.10812172579E+03 -0.85085124285E+01  0.49548918028E+03  0.53633265810E+03  0.17430000000E+03 0.  1.
</event>
<event>
 4 661  0.7533903E-01  0.9118800E+02  0.7818608E-02  0.1300000E+00
       21   -1    0    0  502  503  0.00000000000E+00  0.00000000000E+00  0.40274858078E+03  0.40274858078E+03  0.00000000000E+00 0.  1.
       21   -1    0    0  501  502  0.00000000000E+00  0.00000000000E+00 -0.82924097279E+02  0.82924097279E+02  0.00000000000E+00 0.  1.
        6    1    1    2  501    0 -0.26279711799E+02  0.20688972228E+02  0.10201579031E+03  0.20471044989E+03  0.17430000000E+03 0.  1.
       -6    1    1    2    0  503  0.26279711799E+02 -0.20688972228E+02  0.21780869319E+03  0.28096222816E+03  0.17430000000E+03 0.  1.
</event>
<event>
 4 661  0.7533903E-01  0.9118800E+02  0.7818608E-02  0.1300000E+00
       21   -1    0    0  501  502  0.00000000000E+00  0.00000000000E+00  0.51882424553E+02  0.51882424553E+02  0.00000000000E+00 0.  1.
       21   -1    0    0  502  503  0.00000000000E+00  0.00000000000E+00 -0.28836497583E+04  0.28836497583E+04  0.00000000000E+00 0.  1.
        6    1    1    2  501    0  0.12526225480E+03 -0.86536714256E+01 -0.19528853647E+03  0.29031641528E+03  0.17430000000E+03 0.  1.
       -6    1    1    2    0  503 -0.12526225480E+03  0.86536714256E+01 -0.26364787973E+04  0.26452157676E+04  0.17430000000E+03 0.  1.
</event>
<event>
 4 661  0.7533903E-01  0.9118800E+02  0.7818608E-02  0.1300000E+00
       21   -1    0    0  501  502  0.00000000000E+00  0.00000000000E+00  0.11933412519E+03  0.11933412519E+03  0.00000000000E+00 0. -1.
       21   -1    0    0  502  503  0.00000000000E+00  0.00000000000E+00 -0.30890283674E+03  0.30890283674E+03  0.00000000000E+00 0.  1.
        6    1    1    2  501    0 -0.70728670192E+02 -0.18062640223E+02 -0.56910233727E+02  0.19735265000E+03  0.17430000000E+03 0.  1.
       -6    1    1    2    0  503  0.70728670192E+02  0.18062640223E+02 -0.13265847782E+03  0.23088431193E+03  0.17430000000E+03 0.  1.
</event>
<event>
 4 661  0.7533903E-01  0.9118800E+02  0.7818608E-02  0.1300000E+00
       21   -1    0    0  502  503  0.00000000000E+00  0.00000000000E+00  0.31583718541E+03  0.31583718541E+03  0.00000000000E+00 0. -1.
       21   -1    0    0  501  502  0.00000000000E+00  0.00000000000E+00 -0.27204699592E+03  0.27204699592E+03  0.00000000000E+00 0. -1.
        6    1    1    2  501    0  0.26327195324E+02 -0.36925941358E+01 -0.21292666410E+03  0.27645073838E+03  0.17430000000E+03 0. -1.
       -6    1    1    2    0  503 -0.26327195324E+02  0.36925941358E+01  0.25671685359E+03  0.31143344294E+03  0.17430000000E+03 0. -1.
</event>
<event>
 4 661  0.7533903E-01  0.9118800E+02  0.7818608E-02  0.1300000E+00
       21   -1    0    0  502  503  0.00000000000E+00  0.00000000000E+00  0.68030118963E+03  0.68030118963E+03  0.00000000000E+00 0.  1.
       21   -1    0    0  501  502  0.00000000000E+00  0.00000000000E+00 -0.76635194475E+02  0.76635194475E+02  0.00000000000E+00 0.  1.
        6    1    1    2  501    0  0.15182420950E+02 -0.89975330265E+02  0.10975495949E+03  0.22528361479E+03  0.17430000000E+03 0.  1.
       -6    1    1    2    0  503 -0.15182420950E+02  0.89975330265E+02  0.49391103567E+03  0.53165276931E+03  0.17430000000E+03 0.  1.
</event>
<event>
 4 661  0.7533903E-01  0.9118800E+02  0.7818608E-02  0.1300000E+00
       21   -1    0    0  502  503  0.00000000000E+00  0.00000000000E+00  0.43907113618E+03  0.43907113618E+03  0.00000000000E+00 0.  1.
       21   -1    0    0  501  502  0.00000000000E+00  0.00000000000E+00 -0.45512026687E+03  0.45512026687E+03  0.00000000000E+00 0.  1.
        6    1    1    2  501    0  0.14445175367E+02  0.48118395392E+02 -0.41665573160E+03  0.45442989750E+03  0.17430000000E+03 0.  1.
       -6    1    1    2    0  503 -0.14445175367E+02 -0.48118395392E+02  0.40060660091E+03  0.43976150555E+03  0.17430000000E+03 0.  1.
</event>
<event>
 4 661  0.7533903E-01  0.9118800E+02  0.7818608E-02  0.1300000E+00
       21   -1    0    0  501  502  0.00000000000E+00  0.00000000000E+00  0.16568454327E+03  0.16568454327E+03  0.00000000000E+00 0. -1.
       21   -1    0    0  502  503  0.00000000000E+00  0.00000000000E+00 -0.76615017478E+03  0.76615017478E+03  0.00000000000E+00 0.  1.
        6    1    1    2  501    0 -0.48470914675E+02 -0.20482246795E+03 -0.12931764740E+01  0.27328343392E+03  0.17430000000E+03 0. -1.
       -6    1    1    2    0  503  0.48470914675E+02  0.20482246795E+03 -0.59917245504E+03  0.65855128412E+03  0.17430000000E+03 0.  1.
</event>
<event>
 4 661  0.7533903E-01  0.9118800E+02  0.7818608E-02  0.1300000E+00
       21   -1    0    0  501  502  0.00000000000E+00  0.00000000000E+00  0.17964698655E+03  0.17964698655E+03  0.00000000000E+00 0.  1.
       21   -1    0    0  502  503  0.00000000000E+00  0.00000000000E+00 -0.25299810666E+03  0.25299810666E+03  0.00000000000E+00 0.  1.
        6    1    1    2  501    0  0.33230979595E+02  0.11706450727E+03 -0.53082829386E+02  0.21910425291E+03  0.17430000000E+03 0.  1.
       -6    1    1    2    0  503 -0.33230979595E+02 -0.11706450727E+03 -0.20268290719E+02  0.21354084030E+03  0.17430000000E+03 0.  1.
</event>
<event>
 4 661  0.7533903E-01  0.9118800E+02  0.7818608E-02  0.1300000E+00
       21   -1    0    0  501  502  0.00000000000E+00  0.00000000000E+00  0.54995168940E+03  0.54995168940E+03  0.00000000000E+00 0. -1.
       21   -1    0    0  502  503  0.00000000000E+00  0.00000000000E+00 -0.28963057173E+03  0.28963057173E+03  0.00000000000E+00 0. -1.
        6    1    1    2  501    0  0.59097599269E+02 -0.45485038728E+02  0.49956522276E+03  0.53432884704E+03  0.17430000000E+03 0. -1.
       -6    1    1    2    0  503 -0.59097599269E+02  0.45485038728E+02 -0.23924410509E+03  0.30525341408E+03  0.17430000000E+03 0. -1.
</event>
<event>
 4 661  0.7533903E-01  0.9118800E+02  0.7818608E-02  0.1300000E+00
       21   -1    0    0  502  503  0.00000000000E+00  0.00000000000E+00  0.31156020125E+03  0.31156020125E+03  0.00000000000E+00 0. -1.
       21   -1    0    0  501  502  0.00000000000E+00  0.00000000000E+00 -0.10496509177E+03  0.10496509177E+03  0.00000000000E+00 0. -1.
        6    1    1    2  501    0  0.22526970495E+02  0.16421226992E+02  0.14856949763E+03  0.23071737412E+03  0.17430000000E+03 0. -1.
       -6    1    1    2    0  503 -0.22526970495E+02 -0.16421226992E+02  0.58025611849E+02  0.18580791890E+03  0.17430000000E+03 0. -1.
</event>
<event>
 4 661  0.7533903E-01  0.9118800E+02  0.7818608E-02  0.1300000E+00
       21   -1    0    0  501  502  0.00000000000E+00  0.00000000000E+00  0.43269044299E+03  0.43269044299E+03  0.00000000000E+00 0.  1.
       21   -1    0    0  502  503  0.00000000000E+00  0.00000000000E+00 -0.18056048292E+03  0.18056048292E+03  0.00000000000E+00 0.  1.
        6    1    1    2  501    0  0.17904237835E+03 -0.30144590297E+02  0.25943755072E+03  0.36145982113E+03  0.17430000000E+03 0.  1.
       -6    1    1    2    0  503 -0.17904237835E+03  0.30144590297E+02 -0.73075906454E+01  0.25179110479E+03  0.17430000000E+03 0.  1.
</event>
<event>
 4 661  0.7533903E-01  0.9118800E+02  0.7818608E-02  0.1300000E+00
       21   -1    0    0  501  502  0.00000000000E+00  0.00000000000E+00  0.10718651434E+04  0.10718651434E+04  0.00000000000E+00 0.  1.
       21   -1    0    0  502  503  0.00000000000E+00  0.00000000000E+00 -0.10161559458E+03  0.10161559458E+03  0.00000000000E+00 0. -1.
        6    1    1    2  501    0 -0.26694175233E+02  0.27424750041E+03  0.39423749716E+03  0.51159355414E+03  0.17430000000E+03 0. -1.
       -6    1    1    2    0  503  0.26694175233E+02 -0.27424750041E+03  0.57601205161E+03  0.66188718379E+03  0.17430000000E+03 0.  1.
</event>
<event>
 4 661  0.7533903E-01  0.9118800E+02  0.7818608E-02  0.1300000E+00
        1   -1    0    0  501    0  0.00000000000E+00  0.00000000000E+00  0.10035290999E+03  0.10035290999E+03  0.00000000000E+00 0. -1.
       -1   -1    0    0    0  502  0.00000000000E+00  0.00000000000E+00 -0.44328296799E+03  0.44328296799E+03  0.00000000000E+00 0.  1.
        6    1    1    2  501    0  0.87590351697E+02 -0.62682732037E+02 -0.23594242246E+03  0.31249081798E+03  0.17430000000E+03 0. -1.
       -6    1    1    2    0  502 -0.87590351697E+02  0.62682732037E+02 -0.10698763554E+03  0.23114506001E+03  0.17430000000E+03 0.  1.
</event>
<event>
 4 661  0.7533903E-01  0.9118800E+02  0.7818608E-02  0.1300000E+00
       21   -1    0    0  501  502  0.00000000000E+00  0.00000000000E+00  0.62179206658E+03  0.62179206658E+03  0.00000000000E+00 0.  1.
       21   -1    0    0  502  503  0.00000000000E+00  0.00000000000E+00 -0.93285462729E+02  0.93285462729E+02  0.00000000000E+00 0.  1.
        6    1    1    2  501    0 -0.14891556703E+03 -0.73685614668E+02  0.27059610723E+03  0.36222666821E+03  0.17430000000E+03 0.  1.
       -6    1    1    2    0  503  0.14891556703E+03  0.73685614668E+02  0.25791049662E+03  0.35285086110E+03  0.17430000000E+03 0.  1.
</event>
<event>
 4 661  0.7533903E-01  0.9118800E+02  0.7818608E-02  0.1300000E+00
       21   -1    0    0  501  502  0.00000000000E+00  0.00000000000E+00  0.27640930400E+03  0.27640930400E+03  0.00000000000E+00 0.  1.
       21   -1    0    0  502  503  0.00000000000E+00  0.00000000000E+00 -0.20502512611E+03  0.20502512611E+03  0.00000000000E+00 0. -1.
        6    1    1    2  501    0 -0.13307150300E+03 -0.91641649043E+02  0.21970385728E+02  0.23868264411E+03  0.17430000000E+03 0.  1.
       -6    1    1    2    0  503  0.13307150300E+03  0.91641649043E+02  0.49413792160E+02  0.24275178600E+03  0.17430000000E+03 0.  1.
</event>
<event>
 4 661  0.7533903E-01  0.9118800E+02  0.7818608E-02  0.1300000E+00
       21   -1    0    0  501  502  0.00000000000E+00  0.00000000000E+00  0.11854001857E+04  0.11854001857E+04  0.00000000000E+00 0.  1.
       21   -1    0    0  502  503  0.00000000000E+00  0.00000000000E+00 -0.39258312240E+02  0.39258312240E+02  0.00000000000E+00 0.  1.
        6    1    1    2  501    0  0.90038020796E+02 -0.20407636686E+02  0.32508078400E+03  0.38023850798E+03  0.17430000000E+03 0.  1.
       -6    1    1    2    0  503 -0.90038020796E+02  0.20407636686E+02  0.82106108951E+03  0.84441999001E+03  0.17430000000E+03 0.  1.
</event>
<event>
 4 661  0.7533903E-01  0.9118800E+02  0.7818608E-02  0.1300000E+00
       21   -1    0    0  501  502  0.00000000000E+00  0.00000000000E+00  0.20943092051E+03  0.20943092051E+03  0.00000000000E+00 0. -1.
       21   -1    0    0  502  503  0.00000000000E+00  0.00000000000E+00 -0.22191257793E+03  0.22191257793E+03  0.00000000000E+00 0. -1.
        6    1    1    2  501    0 -0.12042680884E+03  0.25130413945E+02 -0.37249159621E+02  0.21656902799E+03  0.17430000000E+03 0. -1.
       -6    1    1    2    0  503  0.12042680884E+03 -0.25130413945E+02  0.24767502207E+02  0.21477447045E+03  0.17430000000E+03 0. -1.
</event>
<event>
 4 661  0.7533903E-01  0.9118800E+02  0.7818608E-02  0.1300000E+00
       -2   -1    0    0    0  502  0.00000000000E+00  0.00000000000E+00  0.24723574887E+03  0.24723574887E+03  0.00000000000E+00 0.  1.
        2   -1    0    0  501    0  0.00000000000E+00  0.00000000000E+00 -0.11109886957E+04  0.11109886957E+04  0.00000000000E+00 0. -1.
        6    1    1    2  501    0  0.32719784349E+03 -0.18577622555E+03 -0.84718217566E+03  0.94322285995E+03  0.17430000000E+03 0. -1.
       -6    1    1    2    0  502 -0.32719784349E+03  0.18577622555E+03 -0.16570771139E+02  0.41500158460E+03  0.17430000000E+03 0.  1.
</event>
<event>
 4 661  0.7533903E-01  0.9118800E+02  0.7818608E-02  0.1300000E+00
       21   -1    0    0  502  503  0.00000000000E+00  0.00000000000E+00  0.23885933658E+04  0.23885933658E+04  0.00000000000E+00 0. -1.
       21   -1    0    0  501  502  0.00000000000E+00  0.00000000000E+00 -0.16312793491E+02  0.16312793491E+02  0.00000000000E+00 0. -1.
        6    1    1    2  501    0 -0.53633769995E+02  0.56954133903E+02  0.88377333540E+03  0.90418811816E+03  0.17430000000E+03 0. -1.
       -6    1    1    2    0  503  0.53633769995E+02 -0.56954133903E+02  0.14885072369E+04  0.15007180412E+04  0.17430000000E+03 0. -1.
</event>
<event>
 4 661  0.7533903E-01  0.9118800E+02  0.7818608E-02  0.1300000E+00
        2   -1    0    0  501    0  0.00000000000E+00  0.00000000000E+00  0.29449943983E+04  0.29449943983E+04  0.00000000000E+00 0.  1.
       -2   -1    0    0    0  502  0.00000000000E+00  0.00000000000E+00 -0.96862127243E+02  0.96862127243E+02  0.00000000000E+00 0. -1.
        6    1    1    2  501    0 -0.98629076929E+02 -0.10123083797E+03  0.43893658718E+02  0.22865371339E+03  0.17430000000E+03 0. -1.
       -6    1    1    2    0  502  0.98629076929E+02  0.10123083797E+03  0.28042386123E+04  0.28132028122E+04  0.17430000000E+03 0.  1.
</event>
<event>
 4 661  0.7533903E-01  0.9118800E+02  0.7818608E-02  0.1300000E+00
       21   -1    0    0  501  502  0.00000000000E+00  0.00000000000E+00  0.26260783306E+03  0.26260783306E+03  0.00000000000E+00 0.  1.
       21   -1    0    0  502  503  0.00000000000E+00  0.00000000000E+00 -0.19028575203E+03  0.19028575203E+03  0.00000000000E+00 0.  1.
        6    1    1    2  501    0  0.65232793239E+02 -0.78931991400E+01  0.16134916028E+03  0.24643794641E+03  0.17430000000E+03 0.  1.
       -6    1    1    2    0  503 -0.65232793239E+02  0.78931991400E+01 -0.89027079242E+02  0.20645563868E+03  0.17430000000E+03 0.  1.
</event>
<event>
 4 661  0.7533903E-01  0.9118800E+02  0.7818608E-02  0.1300000E+00
       21   -1    0    0  502  503  0.00000000000E+00  0.00000000000E+00  0.20719921384E+03  0.20719921384E+03  0.00000000000E+00 0.  1.
       21   -1    0    0  501  502  0.00000000000E+00  0.00000000000E+00 -0.19732652680E+03  0.19732652680E+03  0.00000000000E+00 0.  1.
        6    1    1    2  501    0  0.15009737468E+02  0.85549117746E+02 -0.49499237272E+02  0.20093433817E+03  0.17430000000E+03 0.  1.
       -6    1    1    2    0  503 -0.15009737468E+02 -0.85549117746E+02  0.59371924311E+02  0.20359140248E+03  0.17430000000E+03 0.  1.
</event>
<event>
 4 661  0.7533903E-01  0.9118800E+02  0.7818608E-02  0.1300000E+00
        1   -1    0    0  501    0  0.00000000000E+00  0.00000000000E+00  0.80174680392E+03  0.80174680392E+03  0.00000000000E+00 0.  1.
       -1   -1    0    0    0  502  0.00000000000E+00  0.00000000000E+00 -0.17788006915E+03  0.17788006915E+03  0.00000000000E+00 0. -1.
        6    1    1    2  501    0 -0.28389929569E+03  0.12067161233E+03  0.14245509846E+03  0.38188269560E+03  0.17430000000E+03 0.  1.
       -6    1    1    2    0  502  0.28389929569E+03 -0.12067161233E+03  0.48141163632E+03  0.59774417747E+03  0.17430000000E+03 0.  1.
</event>
<event>
 4 661  0.7533903E-01  0.9118800E+02  0.7818608E-02  0.1300000E+00
       21   -1    0    0  501  502  0.00000000000E+00  0.00000000000E+00  0.45886329281E+03  0.45886329281E+03  0.00000000000E+00 0. -1.
       21   -1    0    0  502  503  0.00000000000E+00  0.00000000000E+00 -0.24131183373E+03  0.24131183373E+03  0.00000000000E+00 0.  1.
        6    1    1    2  501    0 -0.13898855357E+03 -0.22713574871E+03  0.21099575760E+03  0.38184835483E+03  0.17430000000E+03 0.  1.
       -6    1    1    2    0  503  0.13898855357E+03  0.22713574871E+03  0.65557014820E+01  0.31832677171E+03  0.17430000000E+03 0.  1.
</event>
<event>
 4 661  0.7533903E-01  0.9118800E+02  0.7818608E-02  0.1300000E+00
       21   -1    0    0  502  503  0.00000000000E+00  0.00000000000E+00  0.11057303024E+04  0.11057303024E+04  0.00000000000E+00 0. -1.
       21   -1    0    0  501  502  0.00000000000E+00  0.00000000000E+00 -0.11988299552E+03  0.11988299552E+03  0.00000000000E+00 0.  1.
        6    1    1    2  501    0  0.15854723160E+03 -0.73355215979E+01  0.25911670044E+02  0.23715593851E+03  0.17430000000E+03 0.  1.
       -6    1    1    2    0  503 -0.15854723160E+03  0.73355215979E+01  0.95993563687E+03  0.98845735946E+03  0.17430000000E+03 0. -1.
</event>
<event>
 4 661  0.7533903E-01  0.9118800E+02  0.7818608E-02  0.1300000E+00
       21   -1    0    0  501  502  0.00000000000E+00  0.00000000000E+00  0.67377206145E+03  0.67377206145E+03  0.00000000000E+00 0.  1.
       21   -1    0    0  502  503  0.00000000000E+00  0.00000000000E+00 -0.18315271154E+03  0.18315271154E+03  0.00000000000E+00 0.  1.
        6    1    1    2  501    0  0.15402211800E+03 -0.94818185956E+02  0.54484082251E+03  0.59995442585E+03  0.17430000000E+03 0.  1.
       -6    1    1    2    0  503 -0.15402211800E+03  0.94818185956E+02 -0.54221472591E+02  0.25697034715E+03  0.17430000000E+03 0.  1.
</event>
<event>
 4 661  0.7533903E-01  0.9118800E+02  0.7818608E-02  0.1300000E+00
       -1   -1    0    0    0  502  0.00000000000E+00  0.00000000000E+00  0.15204197440E+03  0.15204197440E+03  0.00000000000E+00 0. -1.
        1   -1    0    0  501    0  0.00000000000E+00  0.00000000000E+00 -0.28799018413E+03  0.28799018413E+03  0.00000000000E+00 0.  1.
        6    1    1    2  501    0 -0.13605312334E+02  0.38426306247E+02 -0.18192024740E+03  0.25521981104E+03  0.17430000000E+03 0.  1.
       -6    1    1    2    0  502  0.13605312334E+02 -0.38426306247E+02  0.45972037662E+02  0.18481234748E+03  0.17430000000E+03 0. -1.
</event>
<event>
 4 661  0.7533903E-01  0.9118800E+02  0.7818608E-02  0.1300000E+00
       21   -1    0    0  502  503  0.00000000000E+00  0.00000000000E+00  0.33168068011E+02  0.33168068011E+02  0.00000000000E+00 0.  1.
       21   -1    0    0  501  502  0.00000000000E+00  0.00000000000E+00 -0.10080522627E+04  0.10080522627E+04  0.00000000000E+00 0.  1.
        6    1    1    2  501    0 -0.34896734981E+02  0.40752454839E+02 -0.44965838143E+03  0.48523364957E+03  0.17430000000E+03 0.  1.
       -6    1    1    2    0  503  0.34896734981E+02 -0.40752454839E+02 -0.52522581323E+03  0.55598668111E+03  0.17430000000E+03 0.  1.
</event>
<event>
 4 661  0.7533903E-01  0.9118800E+02  0.7818608E-02  0.1300000E+00
       21   -1    0    0  501  502  0.00000000000E+00  0.00000000000E+00  0.10179031289E+04  0.10179031289E+04  0.00000000000E+00 0. -1.
       21   -1    0    0  502  503  0.00000000000E+00  0.00000000000E+00 -0.68859781882E+02  0.68859781882E+02  0.00000000000E+00 0. -1.
        6    1    1    2  501    0 -0.16586111589E+01 -0.18186440022E+03  0.64169961214E+03  0.68937384146E+03  0.17430000000E+03 0. -1.
       -6    1    1    2    0  503  0.16586111589E+01  0.18186440022E+03  0.30734373492E+03  0.39738906937E+03  0.17430000000E+03 0. -1.
</event>
<event>
 4 661  0.7533903E-01  0.9118800E+02  0.7818608E-02  0.1300000E+00
       21   -1    0    0  501  502  0.00000000000E+00  0.00000000000E+00  0.47457903503E+03  0.47457903503E+03  0.00000000000E+00 0.  1.
       21   -1    0    0  502  503  0.00000000000E+00  0.00000000000E+00 -0.77052702727E+02  0.77052702727E+02  0.00000000000E+00 0. -1.
        6    1    1    2  501    0  0.39991322418E+02  0.66216117358E+02  0.21932500715E+03  0.29063349571E+03  0.17430000000E+03 0.  1.
       -6    1    1    2    0  503 -0.39991322418E+02 -0.66216117358E+02  0.17820132515E+03  0.26099824205E+03  0.17430000000E+03 0.  1.
</event>
<event>
 4 661  0.7533903E-01  0.9118800E+02  0.7818608E-02  0.1300000E+00
       21   -1    0    0  501  502  0.00000000000E+00  0.00000000000E+00  0.40264324492E+03  0.40264324492E+03  0.00000000000E+00 0. -1.
       21   -1    0    0  502  503  0.00000000000E+00  0.00000000000E+00 -0.20179220229E+03  0.20179220229E+03  0.00000000000E+00 0.  1.
        6    1    1    2  501    0 -0.34671839562E+02  0.21270713953E+03  0.29910540873E+02  0.27878592885E+03  0.17430000000E+03 0.  1.
       -6    1    1    2    0  503  0.34671839562E+02 -0.21270713953E+03  0.17094050175E+03  0.32564951836E+03  0.17430000000E+03 0. -1.
</event>
<event>
 4 661  0.7533903E-01  0.9118800E+02  0.7818608E-02  0.1300000E+00
       21   -1    0    0  501  502  0.00000000000E+00  0.00000000000E+00  0.52379443950E+03  0.52379443950E+03  0.00000000000E+00 0. -1.
       21   -1    0    0  502  503  0.00000000000E+00  0.00000000000E+00 -0.78194368945E+02  0.78194368945E+02  0.00000000000E+00 0. -1.
        6    1    1    2  501    0  0.65198503093E+02 -0.75161261100E+02  0.26150413309E+03  0.32964368885E+03  0.17430000000E+03 0. -1.
       -6    1    1    2    0  503 -0.65198503093E+02  0.75161261100E+02  0.18409593747E+03  0.27234511959E+03  0.17430000000E+03 0. -1.
</event>
<event>
 4 661  0.7533903E-01  0.9118800E+02  0.7818608E-02  0.1300000E+00
       21   -1    0    0  502  503  0.00000000000E+00  0.00000000000E+00  0.96527101426E+02  0.96527101426E+02  0.00000000000E+00 0.  1.
       21   -1    0    0  501  502  0.00000000000E+00  0.00000000000E+00 -0.53626417164E+03  0.53626417164E+03  0.00000000000E+00 0.  1.
        6    1    1    2  501    0  0.91382186123E+02 -0.95187084870E+02 -0.30751508078E+03  0.37730266362E+03  0.17430000000E+03 0.  1.
       -6    1    1    2    0  503 -0.91382186123E+02  0.95187084870E+02 -0.13222198943E+03  0.25548860944E+03  0.17430000000E+03 0.  1.
</event>
<event>
 4 661  0.7533903E-01  0.9118800E+02  0.7818608E-02  0.1300000E+00
       21   -1    0    0  501  502  0.00000000000E+00  0.00000000000E+00  0.76340658896E+02  0.76340658896E+02  0.00000000000E+00 0.  1.
       21   -1    0    0  502  503  0.00000000000E+00  0.00000000000E+00 -0.59369932049E+03  0.59369932049E+03  0.00000000000E+00 0.  1.
        6    1    1    2  501    0  0.10569173726E+03  0.47525419576E+01 -0.16231847454E+03  0.26061678219E+03  0.17430000000E+03 0.  1.
       -6    1    1    2    0  503 -0.10569173726E+03 -0.47525419576E+01 -0.35504018706E+03  0.40942319720E+03  0.17430000000E+03 0.  1.
</event>
<event>
 4 661  0.7533903E-01  0.9118800E+02  0.7818608E-02  0.1300000E+00
       21   -1    0    0  502  503  0.00000000000E+00  0.00000000000E+00  0.83440562816E+02  0.83440562816E+02  0.00000000000E+00 0. -1.
       21   -1    0    0  501  502  0.00000000000E+00  0.00000000000E+00 -0.45404033446E+03  0.45404033446E+03  0.00000000000E+00 0.  1.
        6    1    1    2  501    0  0.79677437962E+01 -0.86217491748E+02 -0.18140686363E+03  0.26605616136E+03  0.17430000000E+03 0.  1.
       -6    1    1    2    0  503 -0.79677437962E+01  0.86217491748E+02 -0.18919290801E+03  0.27142473591E+03  0.17430000000E+03 0.  1.
</event>
<event>
 4 661  0.7533903E-01  0.9118800E+02  0.7818608E-02  0.1300000E+00
       21   -1    0    0  502  503  0.00000000000E+00  0.00000000000E+00  0.22938902043E+03  0.22938902043E+03  0.00000000000E+00 0.  1.
       21   -1    0    0  501  502  0.00000000000E+00  0.00000000000E+00 -0.23479550360E+03  0.23479550360E+03  0.00000000000E+00 0.  1.
        6    1    1    2  501    0 -0.56450718950E+02  0.51076858679E+02 -0.13569155182E+03  0.23364121297E+03  0.17430000000E+03 0.  1.
       -6    1    1    2    0  503  0.56450718950E+02 -0.51076858679E+02  0.13028506865E+03  0.23054331106E+03  0.17430000000E+03 0.  1.
</event>
<event>
 4 661  0.7533903E-01  0.9118800E+02  0.7818608E-02  0.1300000E+00
       21   -1    0    0  501  502  0.00000000000E+00  0.00000000000E+00  0.50950993388E+03  0.50950993388E+03  0.00000000000E+00 0. -1.
       21   -1    0    0  502  503  0.00000000000E+00  0.00000000000E+00 -0.85156597024E+03  0.85156597024E+03  0.00000000000E+00 0. -1.
        6    1    1    2  501    0  0.83943280592E+02 -0.19171264664E+03  0.44860915618E+03  0.52481508958E+03  0.17430000000E+03 0. -1.
       -6    1    1    2    0  503 -0.83943280592E+02  0.19171264664E+03 -0.79066519254E+03  0.83626081454E+03  0.17430000000E+03 0. -1.
</event>
<event>
 4 661  0.7533903E-01  0.9118800E+02  0.7818608E-02  0.1300000E+00
       21   -1    0    0  501  502  0.00000000000E+00  0.00000000000E+00  0.20587437128E+04  0.20587437128E+04  0.00000000000E+00 0. -1.
       21   -1    0    0  502  503  0.00000000000E+00  0.00000000000E+00 -0.44476372325E+02  0.44476372325E+02  0.00000000000E+00 0.  1.
        6    1    1    2  501    0  0.38552226413E+02 -0.12010805971E+03  0.17465810961E+04  0.17597835763E+04  0.17430000000E+03 0. -1.
       -6    1    1    2    0  503 -0.38552226413E+02  0.12010805971E+03  0.26768624441E+03  0.34343650885E+03  0.17430000000E+03 0.  1.
</event>
<event>
 4 661  0.7533903E-01  0.9118800E+02  0.7818608E-02  0.1300000E+00
       21   -1    0    0  501  502  0.00000000000E+00  0.00000000000E+00  0.84811692698E+03  0.84811692698E+03  0.00000000000E+00 0. -1.
       21   -1    0    0  502  503  0.00000000000E+00  0.00000000000E+00 -0.98383754565E+02  0.98383754565E+02  0.00000000000E+00 0.  1.
        6    1    1    2  501    0 -0.15905224646E+02 -0.14879287979E+03  0.87956976516E+02  0.24598621295E+03  0.17430000000E+03 0.  1.
       -6    1    1    2    0  503  0.15905224646E+02  0.14879287979E+03  0.66177619590E+03  0.70051446859E+03  0.17430000000E+03 0. -1.
</event>
<event>
 4 661  0.7533903E-01  0.9118800E+02  0.7818608E-02  0.1300000E+00
        3   -1    0    0  501    0  0.00000000000E+00  0.00000000000E+00  0.17502561781E+03  0.17502561781E+03  0.00000000000E+00 0.  1.
       -3   -1    0    0    0  502  0.00000000000E+00  0.00000000000E+00 -0.22410275211E+03  0.22410275211E+03  0.00000000000E+00 0. -1.
        6    1    1    2  501    0  0.54589572417E+02 -0.25520427313E+02  0.48207082641E+02  0.19061932337E+03  0.17430000000E+03 0. -1.
       -6    1    1    2    0  502 -0.54589572417E+02  0.25520427313E+02 -0.97284216942E+02  0.20850904655E+03  0.17430000000E+03 0. -1.
</event>
<event>
 4 661  0.7533903E-01  0.9118800E+02  0.7818608E-02  0.1300000E+00
       21   -1    0    0  501  502  0.00000000000E+00  0.00000000000E+00  0.21024784852E+03  0.21024784852E+03  0.00000000000E+00 0.  1.
       21   -1    0    0  502  503  0.00000000000E+00  0.00000000000E+00 -0.30341195687E+03  0.30341195687E+03  0.00000000000E+00 0. -1.
        6    1    1    2  501    0 -0.42429987024E+02 -0.10868796327E+03  0.96495797358E+02  0.23087941889E+03  0.17430000000E+03 0.  1.
       -6    1    1    2    0  503  0.42429987024E+02  0.10868796327E+03 -0.18965990571E+03  0.28278038650E+03  0.17430000000E+03 0. -1.
</event>
<event>
 4 661  0.7533903E-01  0.9118800E+02  0.7818608E-02  0.1300000E+00
       21   -1    0    0  501  502  0.00000000000E+00  0.00000000000E+00  0.42369611622E+02  0.42369611622E+02  0.00000000000E+00 0.  1.
       21   -1    0    0  502  503  0.00000000000E+00  0.00000000000E+00 -0.11113806932E+04  0.11113806932E+04  0.00000000000E+00 0.  1.
        6    1    1    2  501    0 -0.97583705808E+02 -0.66127630227E+02 -0.67549781407E+03  0.70751199985E+03  0.17430000000E+03 0.  1.
       -6    1    1    2    0  503  0.97583705808E+02  0.66127630227E+02 -0.39351326750E+03  0.44623830496E+03  0.17430000000E+03 0.  1.
</event>
<event>
 4 661  0.7533903E-01  0.9118800E+02  0.7818608E-02  0.1300000E+00
       21   -1    0    0  502  503  0.00000000000E+00  0.00000000000E+00  0.10338948051E+03  0.10338948051E+03  0.00000000000E+00 0. -1.
       21   -1    0    0  501  502  0.00000000000E+00  0.00000000000E+00 -0.63402261849E+03  0.63402261849E+03  0.00000000000E+00 0. -1.
        6    1    1    2  501    0  0.91168628399E+02  0.49260345235E+02 -0.49041552240E+03  0.53068462859E+03  0.17430000000E+03 0. -1.
       -6    1    1    2    0  503 -0.91168628399E+02 -0.49260345235E+02 -0.40217615589E+02  0.20672747041E+03  0.17430000000E+03 0. -1.
</event>
<event>
 4 661  0.7533903E-01  0.9118800E+02  0.7818608E-02  0.1300000E+00
       21   -1    0    0  501  502  0.00000000000E+00  0.00000000000E+00  0.52508414058E+03  0.52508414058E+03  0.00000000000E+00 0.  1.
       21   -1    0    0  502  503  0.00000000000E+00  0.00000000000E+00 -0.13199308124E+03  0.13199308124E+03  0.00000000000E+00 0. -1.
        6    1    1    2  501    0 -0.51537036610E+02 -0.70925973712E+02  0.41711979446E+03  0.46049535592E+03  0.17430000000E+03 0.  1.
       -6    1    1    2    0  503  0.51537036610E+02  0.70925973712E+02 -0.24028735123E+02  0.19658186590E+03  0.17430000000E+03 0. -1.
</event>
<event>
 4 661  0.7533903E-01  0.9118800E+02  0.7818608E-02  0.1300000E+00
       21   -1    0    0  501  502  0.00000000000E+00  0.00000000000E+00  0.10506629507E+03  0.10506629507E+03  0.00000000000E+00 0. -1.
       21   -1    0    0  502  503  0.00000000000E+00  0.00000000000E+00 -0.60452125479E+03  0.60452125479E+03  0.00000000000E+00 0. -1.
        6    1    1    2  501    0  0.56813999112E+02 -0.90221815313E+02 -0.42029192354E+02  0.20860189228E+03  0.17430000000E+03 0. -1.
       -6    1    1    2    0  503 -0.56813999112E+02  0.90221815313E+02 -0.45742576737E+03  0.50098565758E+03  0.17430000000E+03 0. -1.
</event>
<event>
 4 661  0.7533903E-01  0.9118800E+02  0.7818608E-02  0.1300000E+00
       21   -1    0    0  502  503  0.00000000000E+00  0.00000000000E+00  0.57614526290E+03  0.57614526290E+03  0.00000000000E+00 0.  1.
       21   -1    0    0  501  502  0.00000000000E+00  0.00000000000E+00 -0.90957004730E+02  0.90957004730E+02  0.00000000000E+00 0.  1.
        6    1    1    2  501    0 -0.42213139241E+02  0.54595693232E+02  0.51161778457E+02  0.19432101384E+03  0.17430000000E+03 0.  1.
       -6    1    1    2    0  503  0.42213139241E+02 -0.54595693232E+02  0.43402647971E+03  0.47278125379E+03  0.17430000000E+03 0.  1.
</event>
<event>
 4 661  0.7533903E-01  0.9118800E+02  0.7818608E-02  0.1300000E+00
       21   -1    0    0  501  502  0.00000000000E+00  0.00000000000E+00  0.67118702459E+02  0.67118702459E+02  0.00000000000E+00 0. -1.
       21   -1    0    0  502  503  0.00000000000E+00  0.00000000000E+00 -0.64959468020E+03  0.64959468020E+03  0.00000000000E+00 0. -1.
        6    1    1    2  501    0  0.23679063856E+02 -0.11756695448E+01 -0.98154804621E+02  0.20143717615E+03  0.17430000000E+03 0. -1.
       -6    1    1    2    0  503 -0.23679063856E+02  0.11756695448E+01 -0.48432117312E+03  0.51527620651E+03  0.17430000000E+03 0. -1.
</event>
<event>
 4 661  0.7533903E-01  0.9118800E+02  0.7818608E-02  0.1300000E+00
       21   -1    0    0  502  503  0.00000000000E+00  0.00000000000E+00  0.66562160856E+03  0.66562160856E+03  0.00000000000E+00 0. -1.
       21   -1    0    0  501  502  0.00000000000E+00  0.00000000000E+00 -0.13609895752E+03  0.13609895752E+03  0.00000000000E+00 0. -1.
        6    1    1    2  501    0  0.27439616980E+02  0.11602937986E+03 -0.20868335414E+02  0.21220680242E+03  0.17430000000E+03 0. -1.
       -6    1    1    2    0  503 -0.27439616980E+02 -0.11602937986E+03  0.55039098646E+03  0.58951376366E+03  0.17430000000E+03 0. -1.
</event>
<event>
 4 661  0.7533903E-01  0.9118800E+02  0.7818608E-02  0.1300000E+00
       21   -1    0    0  502  503  0.00000000000E+00  0.00000000000E+00  0.10042730182E+04  0.10042730182E+04  0.00000000000E+00 0.  1.
       21   -1    0    0  501  502  0.00000000000E+00  0.00000000000E+00 -0.37872059997E+02  0.37872059997E+02  0.00000000000E+00 0.  1.
        6    1    1    2  501    0 -0.75625131180E+02  0.42195734961E+02  0.45006975301E+03  0.49034978647E+03  0.17430000000E+03 0.  1.
       -6    1    1    2    0  503  0.75625131180E+02 -0.42195734961E+02  0.51633120515E+03  0.55179529169E+03  0.17430000000E+03 0.  1.
</event>
<event>
 4 661  0.7533903E-01  0.9118800E+02  0.7818608E-02  0.1300000E+00
       21   -1    0    0  501  502  0.00000000000E+00  0.00000000000E+00  0.32239467409E+03  0.32239467409E+03  0.00000000000E+00 0.  1.
       21   -1    0    0  502  503  0.00000000000E+00  0.00000000000E+00 -0.36125149470E+03  0.36125149470E+03  0.00000000000E+00 0. -1.
        6    1    1    2  501    0 -0.43688198191E+01 -0.18973322970E+03  0.20469108946E+03  0.32908466562E+03  0.17430000000E+03 0.  1.
       -6    1    1    2    0  503  0.43688198191E+01  0.18973322970E+03 -0.24354791007E+03  0.35456150318E+03  0.17430000000E+03 0. -1.
</event>
<event>
 4 661  0.7533903E-01  0.9118800E+02  0.7818608E-02  0.1300000E+00
       21   -1    0    0  501  502  0.00000000000E+00  0.00000000000E+00  0.13407488813E+03  0.13407488813E+03  0.00000000000E+00 0. -1.
       21   -1    0    0  502  503  0.00000000000E+00  0.00000000000E+00 -0.57527659599E+03  0.57527659599E+03  0.00000000000E+00 0.  1.
        6    1    1    2  501    0 -0.18586760905E+03  0.45645367368E+02 -0.34906931651E+03  0.43458042453E+03  0.17430000000E+03 0. -1.
       -6    1    1    2    0  503  0.18586760905E+03 -0.45645367368E+02 -0.92132391344E+02  0.27477105959E+03  0.17430000000E+03 0. -1.
</event>
<event>
 4 661  0.7533903E-01  0.9118800E+02  0.7818608E-02  0.1300000E+00
       21   -1    0    0  502  503  0.00000000000E+00  0.00000000000E+00  0.22376476984E+03  0.22376476984E+03  0.00000000000E+00 0.  1.
       21   -1    0    0  501  502  0.00000000000E+00  0.00000000000E+00 -0.15392065031E+03  0.15392065031E+03  0.00000000000E+00 0.  1.
        6    1    1    2  501    0 -0.38983420183E+02  0.76662533799E+01 -0.15782695573E+02  0.17946604684E+03  0.17430000000E+03 0.  1.
       -6    1    1    2    0  503  0.38983420183E+02 -0.76662533799E+01  0.85626815100E+02  0.19821937331E+03  0.17430000000E+03 0.  1.
</event>
<event>
 4 661  0.7533903E-01  0.9118800E+02  0.7818608E-02  0.1300000E+00
       21   -1    0    0  502  503  0.00000000000E+00  0.00000000000E+00  0.70076823222E+03  0.70076823222E+03  0.00000000000E+00 0.  1.
       21   -1    0    0  501  502  0.00000000000E+00  0.00000000000E+00 -0.96601057239E+02  0.96601057239E+02  0.00000000000E+00 0.  1.
        6    1    1    2  501    0 -0.13403170719E+03  0.23113784225E+01  0.88960018405E+02  0.23720079232E+03  0.17430000000E+03 0.  1.
       -6    1    1    2    0  503  0.13403170719E+03 -0.23113784225E+01  0.51520715658E+03  0.56016849714E+03  0.17430000000E+03 0.  1.
</event>
<event>
 4 661  0.7533903E-01  0.9118800E+02  0.7818608E-02  0.1300000E+00
        2   -1    0    0  501    0  0.00000000000E+00  0.00000000000E+00  0.20981634842E+04  0.20981634842E+04  0.00000000000E+00 0. -1.
       -2   -1    0    0    0  502  0.00000000000E+00  0.00000000000E+00 -0.20820901436E+02  0.20820901436E+02  0.00000000000E+00 0.  1.
        6    1    1    2  501    0  0.22659035491E+02 -0.10798049041E+03  0.12092172223E+04  0.12266865936E+04  0.17430000000E+03 0. -1.
       -6    1    1    2    0  502 -0.22659035491E+02  0.10798049041E+03  0.86812536047E+03  0.89229779205E+03  0.17430000000E+03 0. -1.
</event>
<event>
 4 661  0.7533903E-01  0.9118800E+02  0.7818608E-02  0.1300000E+00
       21   -1    0    0  501  502  0.00000000000E+00  0.00000000000E+00  0.51884485442E+02  0.51884485442E+02  0.00000000000E+00 0. -1.
       21   -1    0    0  502  503  0.00000000000E+00  0.00000000000E+00 -0.11416741497E+04  0.11416741497E+04  0.00000000000E+00 0. -1.
        6    1    1    2  501    0  0.88879475822E+02 -0.92128230015E+02 -0.27110718367E+03  0.34679499279E+03  0.17430000000E+03 0. -1.
       -6    1    1    2    0  503 -0.88879475822E+02  0.92128230015E+02 -0.81868248063E+03  0.84676364239E+03  0.17430000000E+03 0. -1.
</event>
<event>
 4 661  0.7533903E-01  0.9118800E+02  0.7818608E-02  0.1300000E+00
       -2   -1    0    0    0  502  0.00000000000E+00  0.00000000000E+00  0.32832145603E+03  0.32832145603E+03  0.00000000000E+00 0.  1.
        2   -1    0    0  501    0  0.00000000000E+00  0.00000000000E+00 -0.23326141031E+03  0.23326141031E+03  0.00000000000E+00 0. -1.
        6    1    1    2  501    0  0.93764187255E+02  0.28923253249E+01 -0.14870325258E+03  0.24757470728E+03  0.17430000000E+03 0. -1.
       -6    1    1    2    0  502 -0.93764187255E+02 -0.28923253249E+01  0.24376329830E+03  0.31400815906E+03  0.17430000000E+03 0.  1.
</event>
<event>
 4 661  0.7533903E-01  0.9118800E+02  0.7818608E-02  0.1300000E+00
       21   -1    0    0  502  503  0.00000000000E+00  0.00000000000E+00  0.38093880501E+03  0.38093880501E+03  0.00000000000E+00 0. -1.
       21   -1    0    0  501  502  0.00000000000E+00  0.00000000000E+00 -0.12284179011E+03  0.12284179011E+03  0.00000000000E+00 0. -1.
        6    1    1    2  501    0 -0.67725305030E+02  0.71544037436E+02  0.22442781722E+03  0.30075505212E+03  0.17430000000E+03 0. -1.
       -6    1    1    2    0  503  0.67725305030E+02 -0.71544037436E+02  0.33669197674E+02  0.20302554299E+03  0.17430000000E+03 0. -1.
</event>
<event>
 4 661  0.7533903E-01  0.9118800E+02  0.7818608E-02  0.1300000E+00
       21   -1    0    0  502  503  0.00000000000E+00  0.00000000000E+00  0.32136018721E+03  0.32136018721E+03  0.00000000000E+00 0. -1.
       21   -1    0    0  501  502  0.00000000000E+00  0.00000000000E+00 -0.99804396819E+02  0.99804396819E+02  0.00000000000E+00 0. -1.
        6    1    1    2  501    0 -0.39976649436E+02  0.17804379730E+01  0.99538418249E+02  0.20466970750E+03  0.17430000000E+03 0. -1.
       -6    1    1    2    0  503  0.39976649436E+02 -0.17804379730E+01  0.12201737214E+03  0.21649487653E+03  0.17430000000E+03 0. -1.
</event>
<event>
 4 661  0.7533903E-01  0.9118800E+02  0.7818608E-02  0.1300000E+00
       21   -1    0    0  501  502  0.00000000000E+00  0.00000000000E+00  0.49537790035E+03  0.49537790035E+03  0.00000000000E+00 0.  1.
       21   -1    0    0  502  503  0.00000000000E+00  0.00000000000E+00 -0.13883126526E+03  0.13883126526E+03  0.00000000000E+00 0. -1.
        6    1    1    2  501    0  0.47108679586E+02  0.10527988817E+02  0.40790076829E+03  0.44619905089E+03  0.17430000000E+03 0.  1.
       -6    1    1    2    0  503 -0.47108679586E+02 -0.10527988817E+02 -0.51354133198E+02  0.18801011472E+03  0.17430000000E+03 0. -1.
</event>
<event>
 4 661  0.7533903E-01  0.9118800E+02  0.7818608E-02  0.1300000E+00
       21   -1    0    0  501  502  0.00000000000E+00  0.00000000000E+00  0.71038024791E+02  0.71038024791E+02  0.00000000000E+00 0.  1.
       21   -1    0    0  502  503  0.00000000000E+00  0.00000000000E+00 -0.15245703848E+04  0.15245703848E+04  0.00000000000E+00 0. -1.
        6    1    1    2  501    0  0.68509280966E+02 -0.23238780507E+03 -0.39063937500E+03  0.49160677866E+03  0.17430000000E+03 0.  1.
       -6    1    1    2    0  503 -0.68509280966E+02  0.23238780507E+03 -0.10628929850E+04  0.11040016309E+04  0.17430000000E+03 0. -1.
</event>
<event>
 4 661  0.7533903E-01  0.9118800E+02  0.7818608E-02  0.1300000E+00
       21   -1    0    0  501  502  0.00000000000E+00  0.00000000000E+00  0.33885261656E+03  0.33885261656E+03  0.00000000000E+00 0. -1.
       21   -1    0    0  502  503  0.00000000000E+00  0.00000000000E+00 -0.59533755830E+03  0.59533755830E+03  0.00000000000E+00 0.  1.
        6    1    1    2  501    0 -0.62857676186E+01  0.34155043173E+03  0.11488450650E+03  0.40034378742E+03  0.17430000000E+03 0. -1.
       -6    1    1    2    0  503  0.62857676186E+01 -0.34155043173E+03 -0.37136944824E+03  0.53384638744E+03  0.17430000000E+03 0.  1.
</event>
<event>
 4 661  0.7533903E-01  0.9118800E+02  0.7818608E-02  0.1300000E+00
       21   -1    0    0  501  502  0.00000000000E+00  0.00000000000E+00  0.20495126993E+04  0.20495126993E+04  0.00000000000E+00 0. -1.
       21   -1    0    0  502  503  0.00000000000E+00  0.00000000000E+00 -0.44914076191E+02  0.44914076191E+02  0.00000000000E+00 0. -1.
        6    1    1    2  501    0 -0.18764518695E+03 -0.11679355155E+03  0.13931070531E+04  0.14212597234E+04  0.17430000000E+03 0. -1.
       -6    1    1    2    0  503  0.18764518695E+03  0.11679355155E+03  0.61149156997E+03  0.67316705209E+03  0.17430000000E+03 0. -1.
</event>
<event>
 4 661  0.7533903E-01  0.9118800E+02  0.7818608E-02  0.1300000E+00
       21   -1    0    0  501  502  0.00000000000E+00  0.00000000000E+00  0.10458541521E+03  0.10458541521E+03  0.00000000000E+00 0. -1.
       21   -1    0    0  502  503  0.00000000000E+00  0.00000000000E+00 -0.93736137936E+03  0.93736137936E+03  0.00000000000E+00 0.  1.
        6    1    1    2  501    0  0.21133899583E+03 -0.98844787447E+02 -0.22508051009E+03  0.36807090239E+03  0.17430000000E+03 0. -1.
       -6    1    1    2    0  503 -0.21133899583E+03  0.98844787447E+02 -0.60769545407E+03  0.67387589218E+03  0.17430000000E+03 0.  1.
</event>
<event>
 4 661  0.7533903E-01  0.9118800E+02  0.7818608E-02  0.1300000E+00
       21   -1    0    0  501  502  0.00000000000E+00  0.00000000000E+00  0.33397189555E+03  0.33397189555E+03  0.00000000000E+00 0. -1.
       21   -1    0    0  502  503  0.00000000000E+00  0.00000000000E+00 -0.32021548650E+03  0.32021548650E+03  0.00000000000E+00 0.  1.
        6    1    1    2  501    0 -0.14267936074E+03 -0.23575025584E+03  0.31921711280E+02  0.32762031189E+03  0.17430000000E+03 0.  1.
       -6    1    1    2    0  503  0.14267936074E+03  0.23575025584E+03 -0.18165302235E+02  0.32656707016E+03  0.17430000000E+03 0. -1.
</event>
<event>
 4 661  0.7533903E-01  0.9118800E+02  0.7818608E-02  0.1300000E+00
       21   -1    0    0  502  503  0.00000000000E+00  0.00000000000E+00  0.17725893717E+03  0.17725893717E+03  0.00000000000E+00 0.  1.
       21   -1    0    0  501  502  0.00000000000E+00  0.00000000000E+00 -0.32578532970E+03  0.32578532970E+03  0.00000000000E+00 0. -1.
        6    1    1    2  501    0  0.12563114549E+03  0.75216841379E+02  0.63169389506E+01  0.22773043640E+03  0.17430000000E+03 0. -1.
       -6    1    1    2    0  503 -0.12563114549E+03 -0.75216841379E+02 -0.15484333147E+03  0.27531383047E+03  0.17430000000E+03 0. -1.
</event>
<event>
 4 661  0.7533903E-01  0.9118800E+02  0.7818608E-02  0.1300000E+00
       21   -1    0    0  501  502  0.00000000000E+00  0.00000000000E+00  0.19277334792E+03  0.19277334792E+03  0.00000000000E+00 0. -1.
       21   -1    0    0  502  503  0.00000000000E+00  0.00000000000E+00 -0.34699318028E+03  0.34699318028E+03  0.00000000000E+00 0. -1.
        6    1    1    2  501    0  0.58243841565E+02  0.96005904604E+02  0.84214701902E+02  0.22379026971E+03  0.17430000000E+03 0. -1.
       -6    1    1    2    0  503 -0.58243841565E+02 -0.96005904604E+02 -0.23843453427E+03  0.31597625849E+03  0.17430000000E+03 0. -1.
</event>
<event>
 4 661  0.7533903E-01  0.9118800E+02  0.7818608E-02  0.1300000E+00
       21   -1    0    0  501  502  0.00000000000E+00  0.00000000000E+00  0.55652619640E+03  0.55652619640E+03  0.00000000000E+00 0.  1.
       21   -1    0    0  502  503  0.00000000000E+00  0.00000000000E+00 -0.69117562398E+02  0.69117562398E+02  0.00000000000E+00 0.  1.
        6    1    1    2  501    0  0.27112178650E+02  0.52888926015E+02  0.35132750474E+03  0.39666587238E+03  0.17430000000E+03 0.  1.
       -6    1    1    2    0  503 -0.27112178650E+02 -0.52888926015E+02  0.13608112927E+03  0.22897788642E+03  0.17430000000E+03 0.  1.
</event>
<event>
 4 661  0.7533903E-01  0.9118800E+02  0.7818608E-02  0.1300000E+00
       21   -1    0    0  501  502  0.00000000000E+00  0.00000000000E+00  0.44225231964E+03  0.44225231964E+03  0.00000000000E+00 0.  1.
       21   -1    0    0  502  503  0.00000000000E+00  0.00000000000E+00 -0.11990294362E+03  0.11990294362E+03  0.00000000000E+00 0.  1.
        6    1    1    2  501    0 -0.50801860455E+01  0.90631737815E+02  0.30768299462E+03  0.36508798305E+03  0.17430000000E+03 0.  1.
       -6    1    1    2    0  503  0.50801860455E+01 -0.90631737815E+02  0.14666381401E+02  0.19706728022E+03  0.17430000000E+03 0.  1.
</event>
<event>
 4 661  0.7533903E-01  0.9118800E+02  0.7818608E-02  0.1300000E+00
       21   -1    0    0  502  503  0.00000000000E+00  0.00000000000E+00  0.11549970774E+03  0.11549970774E+03  0.00000000000E+00 0.  1.
       21   -1    0    0  501  502  0.00000000000E+00  0.00000000000E+00 -0.35262580526E+03  0.35262580526E+03  0.00000000000E+00 0.  1.
        6    1    1    2  501    0  0.22637624685E+02 -0.92746373136E+02 -0.15929408629E+03  0.25469481288E+03  0.17430000000E+03 0.  1.
       -6    1    1    2    0  503 -0.22637624685E+02  0.92746373136E+02 -0.77832011242E+02  0.21343070012E+03  0.17430000000E+03 0.  1.
</event>
<event>
 4 661  0.7533903E-01  0.9118800E+02  0.7818608E-02  0.1300000E+00
       21   -1    0    0  501  502  0.00000000000E+00  0.00000000000E+00  0.11432765186E+03  0.11432765186E+03  0.00000000000E+00 0.  1.
       21   -1    0    0  502  503  0.00000000000E+00  0.00000000000E+00 -0.48105751341E+03  0.48105751341E+03  0.00000000000E+00 0.  1.
        6    1    1    2  501    0  0.14076380371E+03 -0.68221282540E+02 -0.16786520227E+03  0.28814546319E+03  0.17430000000E+03 0.  1.
       -6    1    1    2    0  503 -0.14076380371E+03  0.68221282540E+02 -0.19886465928E+03  0.30723970209E+03  0.17430000000E+03 0.  1.
</event>
<event>
 4 661  0.7533903E-01  0.9118800E+02  0.7818608E-02  0.1300000E+00
       21   -1    0    0  501  502  0.00000000000E+00  0.00000000000E+00  0.27497017300E+03  0.27497017300E+03  0.00000000000E+00 0. -1.
       21   -1    0    0  502  503  0.00000000000E+00  0.00000000000E+00 -0.39063080433E+03  0.39063080433E+03  0.00000000000E+00 0.  1.
        6    1    1    2  501    0  0.85924782863E+02  0.15042270638E+03  0.16236349108E+03  0.29453769223E+03  0.17430000000E+03 0. -1.
       -6    1    1    2    0  503 -0.85924782863E+02 -0.15042270638E+03 -0.27802412241E+03  0.37106328510E+03  0.17430000000E+03 0.  1.
</event>
<event>
 4 661  0.7533903E-01  0.9118800E+02  0.7818608E-02  0.1300000E+00
       21   -1    0    0  502  503  0.00000000000E+00  0.00000000000E+00  0.88721306771E+02  0.88721306771E+02  0.00000000000E+00 0. -1.
       21   -1    0    0  501  502  0.00000000000E+00  0.00000000000E+00 -0.42490967026E+03  0.42490967026E+03  0.00000000000E+00 0. -1.
        6    1    1    2  501    0 -0.14147420519E+02  0.79359246154E+02 -0.20597060640E+03  0.28160685389E+03  0.17430000000E+03 0. -1.
       -6    1    1    2    0  503  0.14147420519E+02 -0.79359246154E+02 -0.13021775709E+03  0.23202412314E+03  0.17430000000E+03 0. -1.
</event>
<event>
 4 661  0.7533903E-01  0.9118800E+02  0.7818608E-02  0.1300000E+00
       -1   -1    0    0    0  502  0.00000000000E+00  0.00000000000E+00  0.69271306787E+02  0.69271306787E+02  0.00000000000E+00 0.  1.
        1   -1    0    0  501    0  0.00000000000E+00  0.00000000000E+00 -0.51838074306E+03  0.51838074306E+03  0.00000000000E+00 0. -1.
        6    1    1    2  501    0  0.29583723091E+02  0.67420231264E+02 -0.24064901622E+03  0.30612599247E+03  0.17430000000E+03 0.  1.
       -6    1    1    2    0  502 -0.29583723091E+02 -0.67420231264E+02 -0.20846042005E+03  0.28152605738E+03  0.17430000000E+03 0.  1.
</event>
<event>
 4 661  0.7533903E-01  0.9118800E+02  0.7818608E-02  0.1300000E+00
       -2   -1    0    0    0  502  0.00000000000E+00  0.00000000000E+00  0.22745320837E+03  0.22745320837E+03  0.00000000000E+00 0.  1.
        2   -1    0    0  501    0  0.00000000000E+00  0.00000000000E+00 -0.42163016320E+03  0.42163016320E+03  0.00000000000E+00 0. -1.
        6    1    1    2  501    0 -0.30631639351E+02 -0.17442188766E+03 -0.29078125371E+03  0.38248597325E+03  0.17430000000E+03 0. -1.
       -6    1    1    2    0  502  0.30631639351E+02  0.17442188766E+03  0.96604298880E+02  0.26659739831E+03  0.17430000000E+03 0.  1.
</event>
<event>
 4 661  0.7533903E-01  0.9118800E+02  0.7818608E-02  0.1300000E+00
       21   -1    0    0  501  502  0.00000000000E+00  0.00000000000E+00  0.77311259626E+02  0.77311259626E+02  0.00000000000E+00 0. -1.
       21   -1    0    0  502  503  0.00000000000E+00  0.00000000000E+00 -0.19957820280E+04  0.19957820280E+04  0.00000000000E+00 0.  1.
        6    1    1    2  501    0 -0.17028240771E+03 -0.15520522423E+03 -0.25693462653E+03  0.38662727828E+03  0.17430000000E+03 0. -1.
       -6    1    1    2    0  503  0.17028240771E+03  0.15520522423E+03 -0.16615361419E+04  0.16864660094E+04  0.17430000000E+03 0.  1.
</event>
<event>
 4 661  0.7533903E-01  0.9118800E+02  0.7818608E-02  0.1300000E+00
       21   -1    0    0  501  502  0.00000000000E+00  0.00000000000E+00  0.54824064344E+02  0.54824064344E+02  0.00000000000E+00 0.  1.
       21   -1    0    0  502  503  0.00000000000E+00  0.00000000000E+00 -0.11853413212E+04  0.11853413212E+04  0.00000000000E+00 0.  1.
        6    1    1    2  501    0 -0.20172074479E+02 -0.35087053840E+02 -0.12360664449E+03  0.21747897944E+03  0.17430000000E+03 0.  1.
       -6    1    1    2    0  503  0.20172074479E+02  0.35087053840E+02 -0.10069106124E+04  0.10226864062E+04  0.17430000000E+03 0.  1.
</event>
<event>
 4 661  0.7533903E-01  0.9118800E+02  0.7818608E-02  0.1300000E+00
       -2   -1    0    0    0  502  0.00000000000E+00  0.00000000000E+00  0.70672850234E+02  0.70672850234E+02  0.00000000000E+00 0. -1.
        2   -1    0    0  501    0  0.00000000000E+00  0.00000000000E+00 -0.22465281564E+04  0.22465281564E+04  0.00000000000E+00 0.  1.
        6    1    1    2  501    0  0.73984084294E+02 -0.41219999407E+02 -0.75578692529E+02  0.20800327364E+03  0.17430000000E+03 0. -1.
       -6    1    1    2    0  502 -0.73984084294E+02  0.41219999407E+02 -0.21002766137E+04  0.21091977330E+04  0.17430000000E+03 0.  1.
</event>
<event>
 4 661  0.7533903E-01  0.9118800E+02  0.7818608E-02  0.1300000E+00
       21   -1    0    0  501  502  0.00000000000E+00  0.00000000000E+00  0.57307737155E+02  0.57307737155E+02  0.00000000000E+00 0. -1.
       21   -1    0    0  502  503  0.00000000000E+00  0.00000000000E+00 -0.78242868887E+03  0.78242868887E+03  0.00000000000E+00 0.  1.
        6    1    1    2  501    0  0.96665475156E+02  0.50277280783E+01 -0.22110809626E+03  0.29772264336E+03  0.17430000000E+03 0. -1.
       -6    1    1    2    0  503 -0.96665475156E+02 -0.50277280783E+01 -0.50401285546E+03  0.54201378267E+03  0.17430000000E+03 0.  1.
</event>
<event>
 4 661  0.7533903E-01  0.9118800E+02  0.7818608E-02  0.1300000E+00
       21   -1    0    0  501  502  0.00000000000E+00  0.00000000000E+00  0.41192288069E+03  0.41192288069E+03  0.00000000000E+00 0.  1.
       21   -1    0    0  502  503  0.00000000000E+00  0.00000000000E+00 -0.14613903771E+03  0.14613903771E+03  0.00000000000E+00 0.  1.
        6    1    1    2  501    0 -0.15785302181E+03  0.22190806119E+02  0.20839387927E+03  0.31498969394E+03  0.17430000000E+03 0.  1.
       -6    1    1    2    0  503  0.15785302181E+03 -0.22190806119E+02  0.57389963704E+02  0.24307222446E+03  0.17430000000E+03 0.  1.
</event>
<event>
 4 661  0.7533903E-01  0.9118800E+02  0.7818608E-02  0.1300000E+00
       21   -1    0    0  502  503  0.00000000000E+00  0.00000000000E+00  0.53697220557E+03  0.53697220557E+03  0.00000000000E+00 0. -1.
       21   -1    0    0  501  502  0.00000000000E+00  0.00000000000E+00 -0.15586811123E+03  0.15586811123E+03  0.00000000000E+00 0.  1.
        6    1    1    2  501    0 -0.35898142429E+02  0.19516653034E+03  0.49186295140E+02  0.26866044149E+03  0.17430000000E+03 0.  1.
       -6    1    1    2    0  503  0.35898142429E+02 -0.19516653034E+03  0.33191779920E+03  0.42417987531E+03  0.17430000000E+03 0. -1.
</event>
<event>
 4 661  0.7533903E-01  0.9118800E+02  0.7818608E-02  0.1300000E+00
       21   -1    0    0  501  502  0.00000000000E+00  0.00000000000E+00  0.76027899129E+02  0.76027899129E+02  0.00000000000E+00 0.  1.
       21   -1    0    0  502  503  0.00000000000E+00  0.00000000000E+00 -0.58331932532E+03  0.58331932532E+03  0.00000000000E+00 0.  1.
        6    1    1    2  501    0  0.49065440541E+02  0.55839253275E+02 -0.10980462666E+03  0.21900453351E+03  0.17430000000E+03 0. -1.
       -6    1    1    2    0  503 -0.49065440541E+02 -0.55839253275E+02 -0.39748679953E+03  0.44034269094E+03  0.17430000000E+03 0. -1.
</event>
<event>
 4 661  0.7533903E-01  0.9118800E+02  0.7818608E-02  0.1300000E+00
       21   -1    0    0  501  502  0.00000000000E+00  0.00000000000E+00  0.38206184704E+03  0.38206184704E+03  0.00000000000E+00 0. -1.
       21   -1    0    0  502  503  0.00000000000E+00  0.00000000000E+00 -0.14395091634E+03  0.14395091634E+03  0.00000000000E+00 0. -1.
        6    1    1    2  501    0 -0.20388714621E+02  0.11384902380E+03  0.23795561576E+03  0.31682907849E+03  0.17430000000E+03 0. -1.
       -6    1    1    2    0  503  0.20388714621E+02 -0.11384902380E+03  0.15531493782E+00  0.20918368490E+03  0.17430000000E+03 0. -1.
</event>
<event>
 4 661  0.7533903E-01  0.9118800E+02  0.7818608E-02  0.1300000E+00
       21   -1    0    0  501  502  0.00000000000E+00  0.00000000000E+00  0.48870322439E+03  0.48870322439E+03  0.00000000000E+00 0.  1.
       21   -1    0    0  502  503  0.00000000000E+00  0.00000000000E+00 -0.65386496398E+02  0.65386496398E+02  0.00000000000E+00 0.  1.
        6    1    1    2  501    0  0.37775382806E+02  0.55192335018E+01  0.19491877840E+03  0.26425605321E+03  0.17430000000E+03 0.  1.
       -6    1    1    2    0  503 -0.37775382806E+02 -0.55192335018E+01  0.22839794960E+03  0.28983366758E+03  0.17430000000E+03 0.  1.
</event>
<event>
 4 661  0.7533903E-01  0.9118800E+02  0.7818608E-02  0.1300000E+00
       21   -1    0    0  502  503  0.00000000000E+00  0.00000000000E+00  0.25882630394E+03  0.25882630394E+03  0.00000000000E+00 0. -1.
       21   -1    0    0  501  502  0.00000000000E+00  0.00000000000E+00 -0.28506572609E+03  0.28506572609E+03  0.00000000000E+00 0.  1.
        6    1    1    2  501    0  0.31481512481E+02  0.24444175346E+02 -0.21784137875E+03  0.28182256765E+03  0.17430000000E+03 0.  1.
       -6    1    1    2    0  503 -0.31481512481E+02 -0.24444175346E+02  0.19160195660E+03  0.26206946238E+03  0.17430000000E+03 0. -1.
</event>
<event>
 4 661  0.7533903E-01  0.9118800E+02  0.7818608E-02  0.1300000E+00
       21   -1    0    0  502  503  0.00000000000E+00  0.00000000000E+00  0.39972694660E+03  0.39972694660E+03  0.00000000000E+00 0. -1.
       21   -1    0    0  501  502  0.00000000000E+00  0.00000000000E+00 -0.30830947977E+03  0.30830947977E+03  0.00000000000E+00 0. -1.
        6    1    1    2  501    0 -0.11228423686E+02  0.70817110361E+01 -0.26129964969E+03  0.31437911041E+03  0.17430000000E+03 0. -1.
       -6    1    1    2    0  503  0.11228423686E+02 -0.70817110361E+01  0.35271711652E+03  0.39365731597E+03  0.17430000000E+03 0. -1.
</event>
<event>
 4 661  0.7533903E-01  0.9118800E+02  0.7818608E-02  0.1300000E+00
       21   -1    0    0  502  503  0.00000000000E+00  0.00000000000E+00  0.94288952654E+03  0.94288952654E+03  0.00000000000E+00 0.  1.
       21   -1    0    0  501  502  0.00000000000E+00  0.00000000000E+00 -0.53136804044E+02  0.53136804044E+02  0.00000000000E+00 0.  1.
        6    1    1    2  501    0  0.78256449613E+02  0.33119428206E+02  0.19611697315E+03  0.27579580415E+03  0.17430000000E+03 0.  1.
       -6    1    1    2    0  503 -0.78256449613E+02 -0.33119428206E+02  0.69363574935E+03  0.72023052644E+03  0.17430000000E+03 0.  1.
</event>
<event>
 4 661  0.7533903E-01  0.9118800E+02  0.7818608E-02  0.1300000E+00
       21   -1    0    0  502  503  0.00000000000E+00  0.00000000000E+00  0.18909100350E+03  0.18909100350E+03  0.00000000000E+00 0. -1.
       21   -1    0    0  501  502  0.00000000000E+00  0.00000000000E+00 -0.58122682134E+03  0.58122682134E+03  0.00000000000E+00 0.  1.
        6    1    1    2  501    0  0.40460906138E+02  0.14154311314E+03 -0.47551117127E+03  0.52741151088E+03  0.17430000000E+03 0.  1.
       -6    1    1    2    0  503 -0.40460906138E+02 -0.14154311314E+03  0.83375353424E+02  0.24290631396E+03  0.17430000000E+03 0. -1.
</event>
<event>
 4 661  0.7533903E-01  0.9118800E+02  0.7818608E-02  0.1300000E+00
       21   -1    0    0  502  503  0.00000000000E+00  0.00000000000E+00  0.22628474391E+03  0.22628474391E+03  0.00000000000E+00 0. -1.
       21   -1    0    0  501  502  0.00000000000E+00  0.00000000000E+00 -0.37013034100E+03  0.37013034100E+03  0.00000000000E+00 0. -1.
        6    1    1    2  501    0  0.35996582238E+02 -0.48655870721E+02 -0.30166502066E+03  0.35361762170E+03  0.17430000000E+03 0. -1.
       -6    1    1    2    0  503 -0.35996582238E+02  0.48655870721E+02  0.15781942357E+03  0.24279746322E+03  0.17430000000E+03 0. -1.
</event>
<event>
 4 661  0.7533903E-01  0.9118800E+02  0.7818608E-02  0.1300000E+00
       21   -1    0    0  501  502  0.00000000000E+00  0.00000000000E+00  0.42171569290E+03  0.42171569290E+03  0.00000000000E+00 0.  1.
       21   -1    0    0  502  503  0.00000000000E+00  0.00000000000E+00 -0.31594688402E+03  0.31594688402E+03  0.00000000000E+00 0. -1.
        6    1    1    2  501    0  0.29688874370E+03 -0.38508668269E+02 -0.63353286411E+02  0.35216469523E+03  0.17430000000E+03 0. -1.
       -6    1    1    2    0  503 -0.29688874370E+03  0.38508668269E+02  0.16912209530E+03  0.38549788169E+03  0.17430000000E+03 0.  1.
</event>
<event>
 4 661  0.7533903E-01  0.9118800E+02  0.7818608E-02  0.1300000E+00
       21   -1    0    0  501  502  0.00000000000E+00  0.00000000000E+00  0.11558656062E+04  0.11558656062E+04  0.00000000000E+00 0. -1.
       21   -1    0    0  502  503  0.00000000000E+00  0.00000000000E+00 -0.77845884410E+02  0.77845884410E+02  0.00000000000E+00 0.  1.
        6    1    1    2  501    0 -0.88145916323E+00  0.18190215601E+03  0.20418732801E+03  0.32428710467E+03  0.17430000000E+03 0.  1.
       -6    1    1    2    0  503  0.88145916323E+00 -0.18190215601E+03  0.87383239373E+03  0.90942438590E+03  0.17430000000E+03 0. -1.
</event>
<event>
 4 661  0.7533903E-01  0.9118800E+02  0.7818608E-02  0.1300000E+00
       21   -1    0    0  502  503  0.00000000000E+00  0.00000000000E+00  0.79908867643E+02  0.79908867643E+02  0.00000000000E+00 0. -1.
       21   -1    0    0  501  502  0.00000000000E+00  0.00000000000E+00 -0.62199752344E+03  0.62199752344E+03  0.00000000000E+00 0. -1.
        6    1    1    2  501    0  0.13585254605E+02 -0.11919988415E+03 -0.38156840406E+03  0.43631193944E+03  0.17430000000E+03 0. -1.
       -6    1    1    2    0  503 -0.13585254605E+02  0.11919988415E+03 -0.16052025174E+03  0.26559445165E+03  0.17430000000E+03 0. -1.
</event>
<event>
 4 661  0.7533903E-01  0.9118800E+02  0.7818608E-02  0.1300000E+00
       21   -1    0    0  502  503  0.00000000000E+00  0.00000000000E+00  0.43039547983E+02  0.43039547983E+02  0.00000000000E+00 0. -1.
       21   -1    0    0  501  502  0.00000000000E+00  0.00000000000E+00 -0.13132476189E+04  0.13132476189E+04  0.00000000000E+00 0. -1.
        6    1    1    2  501    0  0.72329909193E+02 -0.61442157025E+02 -0.10084815657E+04  0.10278240670E+04  0.17430000000E+03 0. -1.
       -6    1    1    2    0  503 -0.72329909193E+02  0.61442157025E+02 -0.26172650520E+03  0.32846309982E+03  0.17430000000E+03 0. -1.
</event>
<event>
 4 661  0.7533903E-01  0.9118800E+02  0.7818608E-02  0.1300000E+00
       21   -1    0    0  501  502  0.00000000000E+00  0.00000000000E+00  0.98179654600E+02  0.98179654600E+02  0.00000000000E+00 0.  1.
       21   -1    0    0  502  503  0.00000000000E+00  0.00000000000E+00 -0.63050504246E+03  0.63050504246E+03  0.00000000000E+00 0.  1.
        6    1    1    2  501    0 -0.14773836120E+02 -0.68978043557E+02 -0.50475393611E+03  0.53864019785E+03  0.17430000000E+03 0.  1.
       -6    1    1    2    0  503  0.14773836120E+02  0.68978043557E+02 -0.27571451751E+02  0.19004449921E+03  0.17430000000E+03 0.  1.
</event>
<event>
 4 661  0.7533903E-01  0.9118800E+02  0.7818608E-02  0.1300000E+00
       21   -1    0    0  502  503  0.00000000000E+00  0.00000000000E+00  0.12667206434E+03  0.12667206434E+03  0.00000000000E+00 0.  1.
       21   -1    0    0  501  502  0.00000000000E+00  0.00000000000E+00 -0.30211279666E+03  0.30211279666E+03  0.00000000000E+00 0.  1.
        6    1    1    2  501    0 -0.28423938209E+02 -0.17625829842E+02 -0.17789498129E+03  0.25128809067E+03  0.17430000000E+03 0.  1.
       -6    1    1    2    0  503  0.28423938209E+02  0.17625829842E+02  0.24542489803E+01  0.17749677033E+03  0.17430000000E+03 0.  1.
</event>
<event>
 4 661  0.7533903E-01  0.9118800E+02  0.7818608E-02  0.1300000E+00
       21   -1    0    0  502  503  0.00000000000E+00  0.00000000000E+00  0.62330555138E+02  0.62330555138E+02  0.00000000000E+00 0.  1.
       21   -1    0    0  501  502  0.00000000000E+00  0.00000000000E+00 -0.54725733797E+03  0.54725733797E+03  0.00000000000E+00 0. -1.
        6    1    1    2  501    0  0.17515133855E+01  0.54962914485E+02 -0.19860250863E+03  0.26990264208E+03  0.17430000000E+03 0.  1.
       -6    1    1    2    0  503 -0.17515133855E+01 -0.54962914485E+02 -0.28632427421E+03  0.33968525103E+03  0.17430000000E+03 0. -1.
</event>
<event>
 4 661  0.7533903E-01  0.9118800E+02  0.7818608E-02  0.1300000E+00
       21   -1    0    0  502  503  0.00000000000E+00  0.00000000000E+00  0.22159706421E+04  0.22159706421E+04  0.00000000000E+00 0. -1.
       21   -1    0    0  501  502  0.00000000000E+00  0.00000000000E+00 -0.18430807570E+02  0.18430807570E+02  0.00000000000E+00 0.  1.
        6    1    1    2  501    0 -0.79167021678E+02 -0.41910841185E+02  0.13717100393E+04  0.13856380689E+04  0.17430000000E+03 0. -1.
       -6    1    1    2    0  503  0.79167021678E+02  0.41910841185E+02  0.82582979523E+03  0.84876338082E+03  0.17430000000E+03 0.  1.
</event>
<event>
 4 661  0.7533903E-01  0.9118800E+02  0.7818608E-02  0.1300000E+00
       21   -1    0    0  501  502  0.00000000000E+00  0.00000000000E+00  0.20427874724E+03  0.20427874724E+03  0.00000000000E+00 0. -1.
       21   -1    0    0  502  503  0.00000000000E+00  0.00000000000E+00 -0.29922101708E+03  0.29922101708E+03  0.00000000000E+00 0. -1.
        6    1    1    2  501    0 -0.46458159766E+02 -0.84716389306E+02  0.10151901866E+03  0.22365560215E+03  0.17430000000E+03 0. -1.
       -6    1    1    2    0  503  0.46458159766E+02  0.84716389306E+02 -0.19646128849E+03  0.27984416217E+03  0.17430000000E+03 0. -1.
</event>
<event>
 4 661  0.7533903E-01  0.9118800E+02  0.7818608E-02  0.1300000E+00
       21   -1    0    0  501  502  0.00000000000E+00  0.00000000000E+00  0.25576187560E+03  0.25576187560E+03  0.00000000000E+00 0. -1.
       21   -1    0    0  502  503  0.00000000000E+00  0.00000000000E+00 -0.20684659653E+03  0.20684659653E+03  0.00000000000E+00 0. -1.
        6    1    1    2  501    0 -0.18659886952E+02  0.13703379941E+03 -0.34150672763E+02  0.22510711231E+03  0.17430000000E+03 0. -1.
       -6    1    1    2    0  503  0.18659886952E+02 -0.13703379941E+03  0.83065951833E+02  0.23750135982E+03  0.17430000000E+03 0. -1.
</event>
<event>
 4 661  0.7533903E-01  0.9118800E+02  0.7818608E-02  0.1300000E+00
       21   -1    0    0  502  503  0.00000000000E+00  0.00000000000E+00  0.30669090867E+03  0.30669090867E+03  0.00000000000E+00 0. -1.
       21   -1    0    0  501  502  0.00000000000E+00  0.00000000000E+00 -0.54574612784E+03  0.54574612784E+03  0.00000000000E+00 0. -1.
        6    1    1    2  501    0 -0.17811075294E+03 -0.70545681517E+02 -0.44946051956E+03  0.51874404299E+03  0.17430000000E+03 0. -1.
       -6    1    1    2    0  503  0.17811075294E+03  0.70545681517E+02  0.21040530040E+03  0.33369299353E+03  0.17430000000E+03 0. -1.
</event>
<event>
 4 661  0.7533903E-01  0.9118800E+02  0.7818608E-02  0.1300000E+00
       21   -1    0    0  502  503  0.00000000000E+00  0.00000000000E+00  0.25486793961E+03  0.25486793961E+03  0.00000000000E+00 0. -1.
       21   -1    0    0  501  502  0.00000000000E+00  0.00000000000E+00 -0.15341553471E+03  0.15341553471E+03  0.00000000000E+00 0. -1.
        6    1    1    2  501    0 -0.76435627402E+02  0.46002893352E+02  0.22236634370E+02  0.19706250085E+03  0.17430000000E+03 0. -1.
       -6    1    1    2    0  503  0.76435627402E+02 -0.46002893352E+02  0.79215770533E+02  0.21122097347E+03  0.17430000000E+03 0. -1.
</event>
<event>
 4 661  0.7533903E-01  0.9118800E+02  0.7818608E-02  0.1300000E+00
       21   -1    0    0  502  503  0.00000000000E+00  0.00000000000E+00  0.29377554527E+03  0.29377554527E+03  0.00000000000E+00 0.  1.
       21   -1    0    0  501  502  0.00000000000E+00  0.00000000000E+00 -0.38742598232E+03  0.38742598232E+03  0.00000000000E+00 0.  1.
        6    1    1    2  501    0 -0.15046531597E+03 -0.67291207523E+02 -0.28630765516E+03  0.37352440526E+03  0.17430000000E+03 0.  1.
       -6    1    1    2    0  503  0.15046531597E+03  0.67291207523E+02  0.19265721811E+03  0.30767712234E+03  0.17430000000E+03 0.  1.
</event>
<event>
 4 661  0.7533903E-01  0.9118800E+02  0.7818608E-02  0.1300000E+00
       21   -1    0    0  502  503  0.00000000000E+00  0.00000000000E+00  0.79392081448E+02  0.79392081448E+02  0.00000000000E+00 0.  1.
       21   -1    0    0  501  502  0.00000000000E+00  0.00000000000E+00 -0.43074027878E+03  0.43074027878E+03  0.00000000000E+00 0.  1.
        6    1    1    2  501    0 -0.96882841084E+01 -0.44307086472E+02 -0.11781121014E+03  0.21521373561E+03  0.17430000000E+03 0. -1.
       -6    1    1    2    0  503  0.96882841084E+01  0.44307086472E+02 -0.23353698719E+03  0.29491862462E+03  0.17430000000E+03 0. -1.
</event>
<event>
 4 661  0.7533903E-01  0.9118800E+02  0.7818608E-02  0.1300000E+00
       21   -1    0    0  501  502  0.00000000000E+00  0.00000000000E+00  0.34418363094E+02  0.34418363094E+02  0.00000000000E+00 0.  1.
       21   -1    0    0  502  503  0.00000000000E+00  0.00000000000E+00 -0.19089832468E+04  0.19089832468E+04  0.00000000000E+00 0. -1.
        6    1    1    2  501    0 -0.11264874244E+03  0.15028156097E+03 -0.96389996966E+03  0.99737552018E+03  0.17430000000E+03 0.  1.
       -6    1    1    2    0  503  0.11264874244E+03 -0.15028156097E+03 -0.91066491403E+03  0.94602608970E+03  0.17430000000E+03 0. -1.
</event>
<event>
 4 661  0.7533903E-01  0.9118800E+02  0.7818608E-02  0.1300000E+00
       21   -1    0    0  502  503  0.00000000000E+00  0.00000000000E+00  0.41234142703E+02  0.41234142703E+02  0.00000000000E+00 0. -1.
       21   -1    0    0  501  502  0.00000000000E+00  0.00000000000E+00 -0.17977018367E+04  0.17977018367E+04  0.00000000000E+00 0. -1.
        6    1    1    2  501    0  0.18404834033E+03  0.40311442206E+02 -0.57153804543E+03  0.62652616172E+03  0.17430000000E+03 0. -1.
       -6    1    1    2    0  503 -0.18404834033E+03 -0.40311442206E+02 -0.11849296486E+04  0.12124098177E+04  0.17430000000E+03 0. -1.
</event>
<event>
 4 661  0.7533903E-01  0.9118800E+02  0.7818608E-02  0.1300000E+00
       21   -1    0    0  502  503  0.00000000000E+00  0.00000000000E+00  0.77144399394E+02  0.77144399394E+02  0.00000000000E+00 0.  1.
       21   -1    0    0  501  502  0.00000000000E+00  0.00000000000E+00 -0.91165156943E+03  0.91165156943E+03  0.00000000000E+00 0. -1.
        6    1    1    2  501    0  0.17111234348E+03  0.16151467327E+02 -0.22706078055E+03  0.33388230270E+03  0.17430000000E+03 0. -1.
       -6    1    1    2    0  503 -0.17111234348E+03 -0.16151467327E+02 -0.60744638948E+03  0.65491366612E+03  0.17430000000E+03 0. -1.
</event>
<event>
 4 661  0.7533903E-01  0.9118800E+02  0.7818608E-02  0.1300000E+00
       21   -1    0    0  501  502  0.00000000000E+00  0.00000000000E+00  0.83632880295E+02  0.83632880295E+02  0.00000000000E+00 0. -1.
       21   -1    0    0  502  503  0.00000000000E+00  0.00000000000E+00 -0.80608694718E+03  0.80608694718E+03  0.00000000000E+00 0. -1.
        6    1    1    2  501    0  0.54795610123E+02  0.68564286109E+02 -0.65466018865E+03  0.68312815256E+03  0.17430000000E+03 0. -1.
       -6    1    1    2    0  503 -0.54795610123E+02 -0.68564286109E+02 -0.67793878239E+02  0.20659167492E+03  0.17430000000E+03 0. -1.
</event>
<event>
 4 661  0.7533903E-01  0.9118800E+02  0.7818608E-02  0.1300000E+00
       21   -1    0    0  501  502  0.00000000000E+00  0.00000000000E+00  0.85183625012E+02  0.85183625012E+02  0.00000000000E+00 0. -1.
       21   -1    0    0  502  503  0.00000000000E+00  0.00000000000E+00 -0.13219058595E+04  0.13219058595E+04  0.00000000000E+00 0. -1.
        6    1    1    2  501    0 -0.67779944141E+02 -0.14131253450E+03 -0.11491375571E+03  0.26105366209E+03  0.17430000000E+03 0. -1.
       -6    1    1    2    0  503  0.67779944141E+02  0.14131253450E+03 -0.11218084788E+04  0.11460358224E+04  0.17430000000E+03 0. -1.
</event>
<event>
 4 661  0.7533903E-01  0.9118800E+02  0.7818608E-02  0.1300000E+00
       21   -1    0    0  502  503  0.00000000000E+00  0.00000000000E+00  0.76346192585E+03  0.76346192585E+03  0.00000000000E+00 0. -1.
       21   -1    0    0  501  502  0.00000000000E+00  0.00000000000E+00 -0.68530478130E+02  0.68530478130E+02  0.00000000000E+00 0. -1.
        6    1    1    2  501    0  0.64831682007E+02  0.92301793578E+02  0.17286252956E+03  0.27015682893E+03  0.17430000000E+03 0. -1.
       -6    1    1    2    0  503 -0.64831682007E+02 -0.92301793578E+02  0.52206891816E+03  0.56183557505E+03  0.17430000000E+03 0. -1.
</event>
<event>
 4 661  0.7533903E-01  0.9118800E+02  0.7818608E-02  0.1300000E+00
       21   -1    0    0  501  502  0.00000000000E+00  0.00000000000E+00  0.97906988564E+02  0.97906988564E+02  0.00000000000E+00 0. -1.
       21   -1    0    0  502  503  0.00000000000E+00  0.00000000000E+00 -0.35154251271E+03  0.35154251271E+03  0.00000000000E+00 0. -1.
        6    1    1    2  501    0 -0.53268235671E+02 -0.21595615817E+01 -0.84930087648E+02  0.20108649489E+03  0.17430000000E+03 0. -1.
       -6    1    1    2    0  503  0.53268235671E+02  0.21595615817E+01 -0.16870543650E+03  0.24836300639E+03  0.17430000000E+03 0. -1.
</event>
<event>
 4 661  0.7533903E-01  0.9118800E+02  0.7818608E-02  0.1300000E+00
       21   -1    0    0  501  502  0.00000000000E+00  0.00000000000E+00  0.79990438361E+03  0.79990438361E+03  0.00000000000E+00 0. -1.
       21   -1    0    0  502  503  0.00000000000E+00  0.00000000000E+00 -0.17709997036E+03  0.17709997036E+03  0.00000000000E+00 0. -1.
        6    1    1    2  501    0 -0.12815689991E+03  0.62958982495E+02  0.70269972228E+03  0.73793998006E+03  0.17430000000E+03 0. -1.
       -6    1    1    2    0  503  0.12815689991E+03 -0.62958982495E+02 -0.79895309025E+02  0.23906437391E+03  0.17430000000E+03 0. -1.
</event>
<event>
 4 661  0.7533903E-01  0.9118800E+02  0.7818608E-02  0.1300000E+00
       21   -1    0    0  501  502  0.00000000000E+00  0.00000000000E+00  0.11573106504E+03  0.11573106504E+03  0.00000000000E+00 0.  1.
       21   -1    0    0  502  503  0.00000000000E+00  0.00000000000E+00 -0.49981759502E+03  0.49981759502E+03  0.00000000000E+00 0.  1.
        6    1    1    2  501    0  0.10851766592E+03  0.15972615459E+00 -0.31761914326E+02  0.20776289017E+03  0.17430000000E+03 0.  1.
       -6    1    1    2    0  503 -0.10851766592E+03 -0.15972615459E+00 -0.35232461565E+03  0.40778576989E+03  0.17430000000E+03 0.  1.
</event>
<event>
 4 661  0.7533903E-01  0.9118800E+02  0.7818608E-02  0.1300000E+00
       21   -1    0    0  501  502  0.00000000000E+00  0.00000000000E+00  0.60794164002E+03  0.60794164002E+03  0.00000000000E+00 0.  1.
       21   -1    0    0  502  503  0.00000000000E+00  0.00000000000E+00 -0.56496098621E+02  0.56496098621E+02  0.00000000000E+00 0.  1.
        6    1    1    2  501    0  0.18588962601E+02  0.16603505425E+02  0.37939374574E+03  0.41825988360E+03  0.17430000000E+03 0.  1.
       -6    1    1    2    0  503 -0.18588962601E+02 -0.16603505425E+02  0.17205179566E+03  0.24617785504E+03  0.17430000000E+03 0.  1.
</event>
<event>
 4 661  0.7533903E-01  0.9118800E+02  0.7818608E-02  0.1300000E+00
       21   -1    0    0  502  503  0.00000000000E+00  0.00000000000E+00  0.13774449919E+04  0.13774449919E+04  0.00000000000E+00 0.  1.
       21   -1    0    0  501  502  0.00000000000E+00  0.00000000000E+00 -0.50436307790E+02  0.50436307790E+02  0.00000000000E+00 0.  1.
        6    1    1    2  501    0 -0.90813677247E+02 -0.82254046407E+02  0.24318376530E+03  0.32331360292E+03  0.17430000000E+03 0.  1.
       -6    1    1    2    0  503  0.90813677247E+02  0.82254046407E+02  0.10838249188E+04  0.11045676968E+04  0.17430000000E+03 0.  1.
</event>
<event>
 4 661  0.7533903E-01  0.9118800E+02  0.7818608E-02  0.1300000E+00
       21   -1    0    0  502  503  0.00000000000E+00  0.00000000000E+00  0.54012273748E+02  0.54012273748E+02  0.00000000000E+00 0. -1.
       21   -1    0    0  501  502  0.00000000000E+00  0.00000000000E+00 -0.72441077568E+03  0.72441077568E+03  0.00000000000E+00 0. -1.
        6    1    1    2  501    0 -0.75122069353E+02 -0.51378173664E+02 -0.29283581969E+03  0.35272701814E+03  0.17430000000E+03 0. -1.
       -6    1    1    2    0  503  0.75122069353E+02  0.51378173664E+02 -0.37756268224E+03  0.42569603129E+03  0.17430000000E+03 0. -1.
</event>
<event>
 4 661  0.7533903E-01  0.9118800E+02  0.7818608E-02  0.1300000E+00
       21   -1    0    0  501  502  0.00000000000E+00  0.00000000000E+00  0.20899829737E+03  0.20899829737E+03  0.00000000000E+00 0.  1.
       21   -1    0    0  502  503  0.00000000000E+00  0.00000000000E+00 -0.60198011075E+03  0.60198011075E+03  0.00000000000E+00 0.  1.
        6    1    1    2  501    0  0.54687727662E+01  0.65387672567E+02  0.14860521965E+03  0.23826341831E+03  0.17430000000E+03 0.  1.
       -6    1    1    2    0  503 -0.54687727662E+01 -0.65387672567E+02 -0.54158703303E+03  0.57271498981E+03  0.17430000000E+03 0.  1.
</event>
<event>
 4 661  0.7533903E-01  0.9118800E+02  0.7818608E-02  0.1300000E+00
       21   -1    0    0  501  502  0.00000000000E+00  0.00000000000E+00  0.84896265851E+03  0.84896265851E+03  0.00000000000E+00 0.  1.
       21   -1    0    0  502  503  0.00000000000E+00  0.00000000000E+00 -0.44097840742E+02  0.44097840742E+02  0.00000000000E+00 0.  1.
        6    1    1    2  501    0 -0.77694024983E+01  0.35114006589E+02  0.57763633298E+03  0.60443161751E+03  0.17430000000E+03 0.  1.
       -6    1    1    2    0  503  0.77694024983E+01 -0.35114006589E+02  0.22722848479E+03  0.28862888174E+03  0.17430000000E+03 0.  1.
</event>
<event>
 4 661  0.7533903E-01  0.9118800E+02  0.7818608E-02  0.1300000E+00
       21   -1    0    0  502  503  0.00000000000E+00  0.00000000000E+00  0.47547193236E+03  0.47547193236E+03  0.00000000000E+00 0. -1.
       21   -1    0    0  501  502  0.00000000000E+00  0.00000000000E+00 -0.76507021805E+03  0.76507021805E+03  0.00000000000E+00 0.  1.
        6    1    1    2  501    0 -0.18759108861E+03  0.62184803372E+02 -0.70273831504E+03  0.75051915080E+03  0.17430000000E+03 0.  1.
       -6    1    1    2    0  503  0.18759108861E+03 -0.62184803372E+02  0.41314002935E+03  0.49002299961E+03  0.17430000000E+03 0. -1.
</event>
<event>
 4 661  0.7533903E-01  0.9118800E+02  0.7818608E-02  0.1300000E+00
       21   -1    0    0  501  502  0.00000000000E+00  0.00000000000E+00  0.37472427174E+03  0.37472427174E+03  0.00000000000E+00 0. -1.
       21   -1    0    0  502  503  0.00000000000E+00  0.00000000000E+00 -0.25864799502E+03  0.25864799502E+03  0.00000000000E+00 0.  1.
        6    1    1    2  501    0 -0.17357228234E+03  0.15898580626E+03  0.16539006867E+03  0.33636020663E+03  0.17430000000E+03 0. -1.
       -6    1    1    2    0  503  0.17357228234E+03 -0.15898580626E+03 -0.49313791939E+02  0.29701206013E+03  0.17430000000E+03 0. -1.
</event>
<event>
 4 661  0.7533903E-01  0.9118800E+02  0.7818608E-02  0.1300000E+00
       21   -1    0    0  501  502  0.00000000000E+00  0.00000000000E+00  0.87153051228E+02  0.87153051228E+02  0.00000000000E+00 0.  1.
       21   -1    0    0  502  503  0.00000000000E+00  0.00000000000E+00 -0.36824365142E+03  0.36824365142E+03  0.00000000000E+00 0.  1.
        6    1    1    2  501    0 -0.17236790893E+02 -0.40326764404E+01 -0.18809723390E+03  0.25704946769E+03  0.17430000000E+03 0.  1.
       -6    1    1    2    0  503  0.17236790893E+02  0.40326764404E+01 -0.92993366287E+02  0.19834723495E+03  0.17430000000E+03 0.  1.
</event>
<event>
 4 661  0.7533903E-01  0.9118800E+02  0.7818608E-02  0.1300000E+00
       -2   -1    0    0    0  502  0.00000000000E+00  0.00000000000E+00  0.14768711681E+03  0.14768711681E+03  0.00000000000E+00 0. -1.
        2   -1    0    0  501    0  0.00000000000E+00  0.00000000000E+00 -0.10773235695E+04  0.10773235695E+04  0.00000000000E+00 0.  1.
        6    1    1    2  501    0  0.77413069594E+02  0.35032947078E+03 -0.46224856725E+03  0.61055527953E+03  0.17430000000E+03 0. -1.
       -6    1    1    2    0  502 -0.77413069594E+02 -0.35032947078E+03 -0.46738788540E+03  0.61445540673E+03  0.17430000000E+03 0.  1.
</event>
<event>
 4 661  0.7533903E-01  0.9118800E+02  0.7818608E-02  0.1300000E+00
       21   -1    0    0  502  503  0.00000000000E+00  0.00000000000E+00  0.62082635154E+03  0.62082635154E+03  0.00000000000E+00 0.  1.
       21   -1    0    0  501  502  0.00000000000E+00  0.00000000000E+00 -0.14629495356E+03  0.14629495356E+03  0.00000000000E+00 0. -1.
        6    1    1    2  501    0  0.67589228504E+02  0.15707365916E+03  0.12447571905E+02  0.24449104331E+03  0.17430000000E+03 0. -1.
       -6    1    1    2    0  503 -0.67589228504E+02 -0.15707365916E+03  0.46208382608E+03  0.52263026179E+03  0.17430000000E+03 0.  1.
</event>
<event>
 4 661  0.7533903E-01  0.9118800E+02  0.7818608E-02  0.1300000E+00
       21   -1    0    0  501  502  0.00000000000E+00  0.00000000000E+00  0.70262416344E+03  0.70262416344E+03  0.00000000000E+00 0.  1.
       21   -1    0    0  502  503  0.00000000000E+00  0.00000000000E+00 -0.70095281420E+02  0.70095281420E+02  0.00000000000E+00 0.  1.
        6    1    1    2  501    0 -0.12205937735E+03  0.96332857101E+01  0.42469152530E+03  0.47511543172E+03  0.17430000000E+03 0.  1.
       -6    1    1    2    0  503  0.12205937735E+03 -0.96332857101E+01  0.20783735672E+03  0.29760401315E+03  0.17430000000E+03 0.  1.
</event>
<event>
 4 661  0.7533903E-01  0.9118800E+02  0.7818608E-02  0.1300000E+00
       21   -1    0    0  501  502  0.00000000000E+00  0.00000000000E+00  0.32993551222E+02  0.32993551222E+02  0.00000000000E+00 0. -1.
       21   -1    0    0  502  503  0.00000000000E+00  0.00000000000E+00 -0.98910729546E+03  0.98910729546E+03  0.00000000000E+00 0. -1.
        6    1    1    2  501    0  0.33807571182E+02 -0.90206841236E+01 -0.38729393367E+03  0.42614716433E+03  0.17430000000E+03 0. -1.
       -6    1    1    2    0  503 -0.33807571182E+02  0.90206841236E+01 -0.56881981057E+03  0.59595368235E+03  0.17430000000E+03 0. -1.
</event>
<event>
 4 661  0.7533903E-01  0.9118800E+02  0.7818608E-02  0.1300000E+00
       21   -1    0    0  502  503  0.00000000000E+00  0.00000000000E+00  0.12638200269E+04  0.12638200269E+04  0.00000000000E+00 0. -1.
       21   -1    0    0  501  502  0.00000000000E+00  0.00000000000E+00 -0.59392415316E+02  0.59392415316E+02  0.00000000000E+00 0. -1.
        6    1    1    2  501    0 -0.39753518548E+02  0.17907921849E+03  0.85584424674E+03  0.89246824785E+03  0.17430000000E+03 0. -1.
       -6    1    1    2    0  503  0.39753518548E+02 -0.17907921849E+03  0.34858336479E+03  0.43074419432E+03  0.17430000000E+03 0. -1.
</event>
<event>
 4 661  0.7533903E-01  0.9118800E+02  0.7818608E-02  0.1300000E+00
       21   -1    0    0  502  503  0.00000000000E+00  0.00000000000E+00  0.17302172506E+03  0.17302172506E+03  0.00000000000E+00 0. -1.
       21   -1    0    0  501  502  0.00000000000E+00  0.00000000000E+00 -0.34258869348E+03  0.34258869348E+03  0.00000000000E+00 0. -1.
        6    1    1    2  501    0  0.43600400576E+02 -0.14618783113E+03 -0.16418628150E+03  0.28391812541E+03  0.17430000000E+03 0. -1.
       -6    1    1    2    0  503 -0.43600400576E+02  0.14618783113E+03 -0.53806869207E+01  0.23169229313E+03  0.17430000000E+03 0. -1.
</event>
<event>
 4 661  0.7533903E-01  0.9118800E+02  0.7818608E-02  0.1300000E+00
       21   -1    0    0  501  502  0.00000000000E+00  0.00000000000E+00  0.18894299563E+03  0.18894299563E+03  0.00000000000E+00 0. -1.
       21   -1    0    0  502  503  0.00000000000E+00  0.00000000000E+00 -0.46751111866E+03  0.46751111866E+03  0.00000000000E+00 0. -1.
        6    1    1    2  501    0 -0.16360862643E+03  0.91769778092E+02  0.27336129642E+02  0.25752131717E+03  0.17430000000E+03 0. -1.
       -6    1    1    2    0  503  0.16360862643E+03 -0.91769778092E+02 -0.30590425267E+03  0.39893279712E+03  0.17430000000E+03 0. -1.
</event>
<event>
 4 661  0.7533903E-01  0.9118800E+02  0.7818608E-02  0.1300000E+00
       21   -1    0    0  502  503  0.00000000000E+00  0.00000000000E+00  0.17518257379E+03  0.17518257379E+03  0.00000000000E+00 0. -1.
       21   -1    0    0  501  502  0.00000000000E+00  0.00000000000E+00 -0.20139032482E+03  0.20139032482E+03  0.00000000000E+00 0. -1.
        6    1    1    2  501    0 -0.56723202390E+02  0.39749756214E+02 -0.23228952036E+02  0.18899110831E+03  0.17430000000E+03 0. -1.
       -6    1    1    2    0  503  0.56723202390E+02 -0.39749756214E+02 -0.29787989902E+01  0.18758179030E+03  0.17430000000E+03 0. -1.
</event>
<event>
 4 661  0.7533903E-01  0.9118800E+02  0.7818608E-02  0.1300000E+00
       21   -1    0    0  501  502  0.00000000000E+00  0.00000000000E+00  0.21496459993E+03  0.21496459993E+03  0.00000000000E+00 0.  1.
       21   -1    0    0  502  503  0.00000000000E+00  0.00000000000E+00 -0.26876230645E+03  0.26876230645E+03  0.00000000000E+00 0. -1.
        6    1    1    2  501    0  0.13292617342E+03  0.77726403599E+02  0.34168786752E+02  0.23507181325E+03  0.17430000000E+03 0.  1.
       -6    1    1    2    0  503 -0.13292617342E+03 -0.77726403599E+02 -0.87966493272E+02  0.24865509312E+03  0.17430000000E+03 0. -1.
</event>
<event>
 4 661  0.7533903E-01  0.9118800E+02  0.7818608E-02  0.1300000E+00
       21   -1    0    0  501  502  0.00000000000E+00  0.00000000000E+00  0.12072205639E+04  0.12072205639E+04  0.00000000000E+00 0. -1.
       21   -1    0    0  502  503  0.00000000000E+00  0.00000000000E+00 -0.14377940291E+03  0.14377940291E+03  0.00000000000E+00 0.  1.
        6    1    1    2  501    0 -0.50449973974E+02 -0.22465318535E+03  0.10186160098E+04  0.10587602745E+04  0.17430000000E+03 0. -1.
       -6    1    1    2    0  503  0.50449973974E+02  0.22465318535E+03  0.44825151219E+02  0.29223969228E+03  0.17430000000E+03 0.  1.
</event>
<event>
 4 661  0.7533903E-01  0.9118800E+02  0.7818608E-02  0.1300000E+00
       21   -1    0    0  502  503  0.00000000000E+00  0.00000000000E+00  0.51493780260E+02  0.51493780260E+02  0.00000000000E+00 0.  1.
       21   -1    0    0  501  502  0.00000000000E+00  0.00000000000E+00 -0.15657036870E+04  0.15657036870E+04  0.00000000000E+00 0.  1.
        6    1    1    2  501    0  0.91606162449E+02 -0.13647143866E+01 -0.13396753424E+04  0.13540694459E+04  0.17430000000E+03 0.  1.
       -6    1    1    2    0  503 -0.91606162449E+02  0.13647143866E+01 -0.17453456433E+03  0.26312802130E+03  0.17430000000E+03 0.  1.
</event>
<event>
 4 661  0.7533903E-01  0.9118800E+02  0.7818608E-02  0.1300000E+00
       -2   -1    0    0    0  502  0.00000000000E+00  0.00000000000E+00  0.15072451706E+02  0.15072451706E+02  0.00000000000E+00 0.  1.
        2   -1    0    0  501    0  0.00000000000E+00  0.00000000000E+00 -0.37331850772E+04  0.37331850772E+04  0.00000000000E+00 0. -1.
        6    1    1    2  501    0 -0.21029356948E+01 -0.83246583865E+02 -0.29467601422E+04  0.29530848687E+04  0.17430000000E+03 0. -1.
       -6    1    1    2    0  502  0.21029356948E+01  0.83246583865E+02 -0.77135248333E+03  0.79517266025E+03  0.17430000000E+03 0.  1.
</event>
<event>
 4 661  0.7533903E-01  0.9118800E+02  0.7818608E-02  0.1300000E+00
       21   -1    0    0  502  503  0.00000000000E+00  0.00000000000E+00  0.42484031568E+02  0.42484031568E+02  0.00000000000E+00 0.  1.
       21   -1    0    0  501  502  0.00000000000E+00  0.00000000000E+00 -0.14991539622E+04  0.14991539622E+04  0.00000000000E+00 0.  1.
        6    1    1    2  501    0  0.72329038628E+02 -0.29387016823E+01 -0.12400564821E+04  0.12543367548E+04  0.17430000000E+03 0.  1.
       -6    1    1    2    0  503 -0.72329038628E+02  0.29387016823E+01 -0.21661344856E+03  0.28730123893E+03  0.17430000000E+03 0.  1.
</event>
<event>
 4 661  0.7533903E-01  0.9118800E+02  0.7818608E-02  0.1300000E+00
       21   -1    0    0  502  503  0.00000000000E+00  0.00000000000E+00  0.69637861781E+03  0.69637861781E+03  0.00000000000E+00 0.  1.
       21   -1    0    0  501  502  0.00000000000E+00  0.00000000000E+00 -0.62774581155E+02  0.62774581155E+02  0.00000000000E+00 0.  1.
        6    1    1    2  501    0  0.97911946943E+02 -0.29995814770E+02  0.21991931630E+03  0.29871641056E+03  0.17430000000E+03 0.  1.
       -6    1    1    2    0  503 -0.97911946943E+02  0.29995814770E+02  0.41368472035E+03  0.46043678840E+03  0.17430000000E+03 0.  1.
</event>
<event>
 4 661  0.7533903E-01  0.9118800E+02  0.7818608E-02  0.1300000E+00
       21   -1    0    0  502  503  0.00000000000E+00  0.00000000000E+00  0.12192909652E+03  0.12192909652E+03  0.00000000000E+00 0. -1.
       21   -1    0    0  501  502  0.00000000000E+00  0.00000000000E+00 -0.49481571461E+03  0.49481571461E+03  0.00000000000E+00 0. -1.
        6    1    1    2  501    0  0.13224344056E+03  0.16212995143E+02 -0.32511679363E+03  0.39221500262E+03  0.17430000000E+03 0. -1.
       -6    1    1    2    0  503 -0.13224344056E+03 -0.16212995143E+02 -0.47769824461E+02  0.22452980852E+03  0.17430000000E+03 0. -1.
</event>
<event>
 4 661  0.7533903E-01  0.9118800E+02  0.7818608E-02  0.1300000E+00
       21   -1    0    0  501  502  0.00000000000E+00  0.00000000000E+00  0.14928176736E+03  0.14928176736E+03  0.00000000000E+00 0. -1.
       21   -1    0    0  502  503  0.00000000000E+00  0.00000000000E+00 -0.47116696362E+03  0.47116696362E+03  0.00000000000E+00 0. -1.
        6    1    1    2  501    0  0.59813185657E+02 -0.86980025456E+02  0.37611741106E+02  0.20721552808E+03  0.17430000000E+03 0. -1.
       -6    1    1    2    0  503 -0.59813185657E+02  0.86980025456E+02 -0.35949693736E+03  0.41323320290E+03  0.17430000000E+03 0. -1.
</event>
<event>
 4 661  0.7533903E-01  0.9118800E+02  0.7818608E-02  0.1300000E+00
       21   -1    0    0  502  503  0.00000000000E+00  0.00000000000E+00  0.37247460292E+03  0.37247460292E+03  0.00000000000E+00 0. -1.
       21   -1    0    0  501  502  0.00000000000E+00  0.00000000000E+00 -0.26611670841E+03  0.26611670841E+03  0.00000000000E+00 0.  1.
        6    1    1    2  501    0  0.25845292930E+03  0.37131241860E+01  0.86304151891E+01  0.31187606196E+03  0.17430000000E+03 0. -1.
       -6    1    1    2    0  503 -0.25845292930E+03 -0.37131241860E+01  0.97727479325E+02  0.32671524937E+03  0.17430000000E+03 0. -1.
</event>
<event>
 4 661  0.7533903E-01  0.9118800E+02  0.7818608E-02  0.1300000E+00
       21   -1    0    0  502  503  0.00000000000E+00  0.00000000000E+00  0.91913287441E+03  0.91913287441E+03  0.00000000000E+00 0.  1.
       21   -1    0    0  501  502  0.00000000000E+00  0.00000000000E+00 -0.56481296521E+02  0.56481296521E+02  0.00000000000E+00 0. -1.
        6    1    1    2  501    0 -0.88926315575E+01  0.10134317771E+03  0.65773884892E+03  0.68800465256E+03  0.17430000000E+03 0.  1.
       -6    1    1    2    0  503  0.88926315575E+01 -0.10134317771E+03  0.20491272897E+03  0.28760951837E+03  0.17430000000E+03 0. -1.
</event>
<event>
 4 661  0.7533903E-01  0.9118800E+02  0.7818608E-02  0.1300000E+00
       21   -1    0    0  501  502  0.00000000000E+00  0.00000000000E+00  0.41652202951E+03  0.41652202951E+03  0.00000000000E+00 0.  1.
       21   -1    0    0  502  503  0.00000000000E+00  0.00000000000E+00 -0.11675694073E+03  0.11675694073E+03  0.00000000000E+00 0. -1.
        6    1    1    2  501    0  0.13725195070E+02 -0.42507654554E+02  0.30404259730E+03  0.35329544668E+03  0.17430000000E+03 0.  1.
       -6    1    1    2    0  503 -0.13725195070E+02  0.42507654554E+02 -0.42775085152E+01  0.17998352356E+03  0.17430000000E+03 0. -1.
</event>
<event>
 4 661  0.7533903E-01  0.9118800E+02  0.7818608E-02  0.1300000E+00
       21   -1    0    0  502  503  0.00000000000E+00  0.00000000000E+00  0.66478945185E+03  0.66478945185E+03  0.00000000000E+00 0.  1.
       21   -1    0    0  501  502  0.00000000000E+00  0.00000000000E+00 -0.12477995279E+03  0.12477995279E+03  0.00000000000E+00 0. -1.
        6    1    1    2  501    0 -0.19244125110E+03  0.33424728219E+02  0.10539921951E+03  0.28220618891E+03  0.17430000000E+03 0. -1.
       -6    1    1    2    0  503  0.19244125110E+03 -0.33424728219E+02  0.43461027956E+03  0.50736321573E+03  0.17430000000E+03 0.  1.
</event>
<event>
 4 661  0.7533903E-01  0.9118800E+02  0.7818608E-02  0.1300000E+00
       21   -1    0    0  502  503  0.00000000000E+00  0.00000000000E+00  0.53480990321E+02  0.53480990321E+02  0.00000000000E+00 0.  1.
       21   -1    0    0  501  502  0.00000000000E+00  0.00000000000E+00 -0.74679602125E+03  0.74679602125E+03  0.00000000000E+00 0.  1.
        6    1    1    2  501    0  0.77939307460E+01 -0.47316824516E+02 -0.51724855235E+03  0.54792899371E+03  0.17430000000E+03 0.  1.
       -6    1    1    2    0  503 -0.77939307460E+01  0.47316824516E+02 -0.17606647857E+03  0.25234801786E+03  0.17430000000E+03 0.  1.
</event>
<event>
 4 661  0.7533903E-01  0.9118800E+02  0.7818608E-02  0.1300000E+00
       21   -1    0    0  502  503  0.00000000000E+00  0.00000000000E+00  0.76233399658E+02  0.76233399658E+02  0.00000000000E+00 0. -1.
       21   -1    0    0  501  502  0.00000000000E+00  0.00000000000E+00 -0.69783874525E+03  0.69783874525E+03  0.00000000000E+00 0. -1.
        6    1    1    2  501    0 -0.64972833001E+02 -0.62200793038E+01 -0.53939756021E+03  0.57060527195E+03  0.17430000000E+03 0. -1.
       -6    1    1    2    0  503  0.64972833001E+02  0.62200793038E+01 -0.82207785383E+02  0.20346687296E+03  0.17430000000E+03 0. -1.
</event>
<event>
 4 661  0.7533903E-01  0.9118800E+02  0.7818608E-02  0.1300000E+00
       21   -1    0    0  502  503  0.00000000000E+00  0.00000000000E+00  0.39075544208E+03  0.39075544208E+03  0.00000000000E+00 0.  1.
       21   -1    0    0  501  502  0.00000000000E+00  0.00000000000E+00 -0.14336349234E+03  0.14336349234E+03  0.00000000000E+00 0.  1.
        6    1    1    2  501    0  0.59041489434E+02  0.72123888089E+02 -0.23211660367E+02  0.19901513481E+03  0.17430000000E+03 0.  1.
       -6    1    1    2    0  503 -0.59041489434E+02 -0.72123888089E+02  0.27060361011E+03  0.33510379961E+03  0.17430000000E+03 0.  1.
</event>
<event>
 4 661  0.7533903E-01  0.9118800E+02  0.7818608E-02  0.1300000E+00
       21   -1    0    0  501  502  0.00000000000E+00  0.00000000000E+00  0.32860135058E+03  0.32860135058E+03  0.00000000000E+00 0. -1.
       21   -1    0    0  502  503  0.00000000000E+00  0.00000000000E+00 -0.13224034827E+03  0.13224034827E+03  0.00000000000E+00 0. -1.
        6    1    1    2  501    0 -0.94326373714E+02 -0.64613742073E+02  0.96841869780E+02  0.22985046919E+03  0.17430000000E+03 0.  1.
       -6    1    1    2    0  503  0.94326373714E+02  0.64613742073E+02  0.99519132523E+02  0.23099122966E+03  0.17430000000E+03 0.  1.
</event>
<event>
 4 661  0.7533903E-01  0.9118800E+02  0.7818608E-02  0.1300000E+00
       21   -1    0    0  501  502  0.00000000000E+00  0.00000000000E+00  0.15440491528E+03  0.15440491528E+03  0.00000000000E+00 0. -1.
       21   -1    0    0  502  503  0.00000000000E+00  0.00000000000E+00 -0.24840974450E+03  0.24840974450E+03  0.00000000000E+00 0. -1.
        6    1    1    2  501    0 -0.63977917420E+02  0.11857200946E+02  0.15901709253E+02  0.18672739887E+03  0.17430000000E+03 0. -1.
       -6    1    1    2    0  503  0.63977917420E+02 -0.11857200946E+02 -0.10990653847E+03  0.21608726092E+03  0.17430000000E+03 0. -1.
</event>
<event>
 4 661  0.7533903E-01  0.9118800E+02  0.7818608E-02  0.1300000E+00
       21   -1    0    0  502  503  0.00000000000E+00  0.00000000000E+00  0.38998271249E+03  0.38998271249E+03  0.00000000000E+00 0.  1.
       21   -1    0    0  501  502  0.00000000000E+00  0.00000000000E+00 -0.17569782364E+03  0.17569782364E+03  0.00000000000E+00 0.  1.
        6    1    1    2  501    0 -0.24516974344E+02 -0.17359813338E+03  0.14184327254E+02  0.24762689491E+03  0.17430000000E+03 0.  1.
       -6    1    1    2    0  503  0.24516974344E+02  0.17359813338E+03  0.20010056160E+03  0.31805364122E+03  0.17430000000E+03 0.  1.
</event>
<event>
 4 661  0.7533903E-01  0.9118800E+02  0.7818608E-02  0.1300000E+00
       21   -1    0    0  502  503  0.00000000000E+00  0.00000000000E+00  0.46322868741E+04  0.46322868741E+04  0.00000000000E+00 0.  1.
       21   -1    0    0  501  502  0.00000000000E+00  0.00000000000E+00 -0.81442094622E+01  0.81442094622E+01  0.00000000000E+00 0.  1.
        6    1    1    2  501    0  0.59654441808E+02 -0.25094147244E+01  0.15775535736E+04  0.15882760204E+04  0.17430000000E+03 0.  1.
       -6    1    1    2    0  503 -0.59654441808E+02  0.25094147244E+01  0.30465890910E+04  0.30521550631E+04  0.17430000000E+03 0.  1.
</event>
<event>
 4 661  0.7533903E-01  0.9118800E+02  0.7818608E-02  0.1300000E+00
       21   -1    0    0  501  502  0.00000000000E+00  0.00000000000E+00  0.52647296655E+03  0.52647296655E+03  0.00000000000E+00 0.  1.
       21   -1    0    0  502  503  0.00000000000E+00  0.00000000000E+00 -0.11424513068E+03  0.11424513068E+03  0.00000000000E+00 0. -1.
        6    1    1    2  501    0 -0.12720673174E+03 -0.15989831183E+02  0.35692493031E+03  0.41738845597E+03  0.17430000000E+03 0.  1.
       -6    1    1    2    0  503  0.12720673174E+03  0.15989831183E+02  0.55302905557E+02  0.22332964126E+03  0.17430000000E+03 0. -1.
</event>
<event>
 4 661  0.7533903E-01  0.9118800E+02  0.7818608E-02  0.1300000E+00
       21   -1    0    0  502  503  0.00000000000E+00  0.00000000000E+00  0.96158388165E+02  0.96158388165E+02  0.00000000000E+00 0.  1.
       21   -1    0    0  501  502  0.00000000000E+00  0.00000000000E+00 -0.47774407680E+03  0.47774407680E+03  0.00000000000E+00 0.  1.
        6    1    1    2  501    0  0.44526204504E+02 -0.10371877216E+03 -0.26186860895E+03  0.33420925323E+03  0.17430000000E+03 0.  1.
       -6    1    1    2    0  503 -0.44526204504E+02  0.10371877216E+03 -0.11971707968E+03  0.23969321174E+03  0.17430000000E+03 0.  1.
</event>
<event>
 4 661  0.7533903E-01  0.9118800E+02  0.7818608E-02  0.1300000E+00
       21   -1    0    0  501  502  0.00000000000E+00  0.00000000000E+00  0.10598417622E+03  0.10598417622E+03  0.00000000000E+00 0. -1.
       21   -1    0    0  502  503  0.00000000000E+00  0.00000000000E+00 -0.34521279759E+03  0.34521279759E+03  0.00000000000E+00 0. -1.
        6    1    1    2  501    0 -0.25070297466E+02  0.59640104607E+02 -0.66590535332E+02  0.19748481280E+03  0.17430000000E+03 0. -1.
       -6    1    1    2    0  503  0.25070297466E+02 -0.59640104607E+02 -0.17263808603E+03  0.25371216100E+03  0.17430000000E+03 0. -1.
</event>
<event>
 4 661  0.7533903E-01  0.9118800E+02  0.7818608E-02  0.1300000E+00
       21   -1    0    0  501  502  0.00000000000E+00  0.00000000000E+00  0.30349788971E+03  0.30349788971E+03  0.00000000000E+00 0.  1.
       21   -1    0    0  502  503  0.00000000000E+00  0.00000000000E+00 -0.25958029036E+03  0.25958029036E+03  0.00000000000E+00 0.  1.
        6    1    1    2  501    0  0.94026153110E+02 -0.71700867090E+01  0.22133550523E+03  0.29708958832E+03  0.17430000000E+03 0.  1.
       -6    1    1    2    0  503 -0.94026153110E+02  0.71700867090E+01 -0.17741790588E+03  0.26598859175E+03  0.17430000000E+03 0.  1.
</event>
<event>
 4 661  0.7533903E-01  0.9118800E+02  0.7818608E-02  0.1300000E+00
       21   -1    0    0  501  502  0.00000000000E+00  0.00000000000E+00  0.36426550694E+02  0.36426550694E+02  0.00000000000E+00 0. -1.
       21   -1    0    0  502  503  0.00000000000E+00  0.00000000000E+00 -0.10813368690E+04  0.10813368690E+04  0.00000000000E+00 0. -1.
        6    1    1    2  501    0  0.72268828200E+02  0.42035801833E+02 -0.39592087340E+03  0.44059462112E+03  0.17430000000E+03 0. -1.
       -6    1    1    2    0  503 -0.72268828200E+02 -0.42035801833E+02 -0.64898944493E+03  0.67716879860E+03  0.17430000000E+03 0. -1.
</event>
<event>
 4 661  0.7533903E-01  0.9118800E+02  0.7818608E-02  0.1300000E+00
       21   -1    0    0  501  502  0.00000000000E+00  0.00000000000E+00  0.27370362154E+03  0.27370362154E+03  0.00000000000E+00 0.  1.
       21   -1    0    0  502  503  0.00000000000E+00  0.00000000000E+00 -0.20373785838E+03  0.20373785838E+03  0.00000000000E+00 0.  1.
        6    1    1    2  501    0 -0.12027302283E+03 -0.70375892889E+02 -0.43092984373E+02  0.22727925911E+03  0.17430000000E+03 0.  1.
       -6    1    1    2    0  503  0.12027302283E+03  0.70375892889E+02  0.11305874754E+03  0.25016222080E+03  0.17430000000E+03 0.  1.
</event>
<event>
 4 661  0.7533903E-01  0.9118800E+02  0.7818608E-02  0.1300000E+00
       21   -1    0    0  501  502  0.00000000000E+00  0.00000000000E+00  0.22631342046E+04  0.22631342046E+04  0.00000000000E+00 0.  1.
       21   -1    0    0  502  503  0.00000000000E+00  0.00000000000E+00 -0.10938346448E+03  0.10938346448E+03  0.00000000000E+00 0.  1.
        6    1    1    2  501    0 -0.59857781501E+02  0.15561760214E+02  0.21781319841E+04  0.21859699341E+04  0.17430000000E+03 0.  1.
       -6    1    1    2    0  503  0.59857781501E+02 -0.15561760214E+02 -0.24381243990E+02  0.18654773503E+03  0.17430000000E+03 0.  1.
</event>
<event>
 4 661  0.7533903E-01  0.9118800E+02  0.7818608E-02  0.1300000E+00
       -1   -1    0    0    0  502  0.00000000000E+00  0.00000000000E+00  0.25664661298E+03  0.25664661298E+03  0.00000000000E+00 0.  1.
        1   -1    0    0  501    0  0.00000000000E+00  0.00000000000E+00 -0.37731967161E+03  0.37731967161E+03  0.00000000000E+00 0. -1.
        6    1    1    2  501    0  0.32864654242E+02  0.23179238409E+03 -0.17027960766E+03  0.33791038695E+03  0.17430000000E+03 0. -1.
       -6    1    1    2    0  502 -0.32864654242E+02 -0.23179238409E+03  0.49606549039E+02  0.29605589764E+03  0.17430000000E+03 0.  1.
</event>
<event>
 4 661  0.7533903E-01  0.9118800E+02  0.7818608E-02  0.1300000E+00
       21   -1    0    0  501  502  0.00000000000E+00  0.00000000000E+00  0.60045563578E+02  0.60045563578E+02  0.00000000000E+00 0. -1.
       21   -1    0    0  502  503  0.00000000000E+00  0.00000000000E+00 -0.12681294495E+04  0.12681294495E+04  0.00000000000E+00 0. -1.
        6    1    1    2  501    0  0.32036612877E+02 -0.15618642601E+03 -0.26077917119E+03  0.35186191945E+03  0.17430000000E+03 0. -1.
       -6    1    1    2    0  503 -0.32036612877E+02  0.15618642601E+03 -0.94730471477E+03  0.97631309366E+03  0.17430000000E+03 0. -1.
</event>
<event>
 4 661  0.7533903E-01  0.9118800E+02  0.7818608E-02  0.1300000E+00
       21   -1    0    0  501  502  0.00000000000E+00  0.00000000000E+00  0.13754072046E+03  0.13754072046E+03  0.00000000000E+00 0. -1.
       21   -1    0    0  502  503  0.00000000000E+00  0.00000000000E+00 -0.95963279606E+03  0.95963279606E+03  0.00000000000E+00 0.  1.
        6    1    1    2  501    0 -0.12245394925E+03 -0.24738757594E+03 -0.17033226202E+03  0.36822432280E+03  0.17430000000E+03 0. -1.
       -6    1    1    2    0  503  0.12245394925E+03  0.24738757594E+03 -0.65175981358E+03  0.72894919372E+03  0.17430000000E+03 0.  1.
</event>
<event>
 4 661  0.7533903E-01  0.9118800E+02  0.7818608E-02  0.1300000E+00
       21   -1    0    0  502  503  0.00000000000E+00  0.00000000000E+00  0.12680639042E+03  0.12680639042E+03  0.00000000000E+00 0.  1.
       21   -1    0    0  501  502  0.00000000000E+00  0.00000000000E+00 -0.46547012869E+03  0.46547012869E+03  0.00000000000E+00 0.  1.
        6    1    1    2  501    0  0.76847131969E+02  0.78173435241E+02 -0.32650992086E+03  0.38601267607E+03  0.17430000000E+03 0.  1.
       -6    1    1    2    0  503 -0.76847131969E+02 -0.78173435241E+02 -0.12153817416E+02  0.20626384304E+03  0.17430000000E+03 0.  1.
</event>
<event>
 4 661  0.7533903E-01  0.9118800E+02  0.7818608E-02  0.1300000E+00
       21   -1    0    0  501  502  0.00000000000E+00  0.00000000000E+00  0.11811042897E+04  0.11811042897E+04  0.00000000000E+00 0.  1.
       21   -1    0    0  502  503  0.00000000000E+00  0.00000000000E+00 -0.92614833414E+02  0.92614833414E+02  0.00000000000E+00 0.  1.
        6    1    1    2  501    0  0.41947250517E+02 -0.93410694287E+02  0.10482960862E+04  0.10676096216E+04  0.17430000000E+03 0.  1.
       -6    1    1    2    0  503 -0.41947250517E+02  0.93410694287E+02  0.40193370048E+02  0.20610950155E+03  0.17430000000E+03 0.  1.
</event>
<event>
 4 661  0.7533903E-01  0.9118800E+02  0.7818608E-02  0.1300000E+00
       21   -1    0    0  502  503  0.00000000000E+00  0.00000000000E+00  0.87864278488E+02  0.87864278488E+02  0.00000000000E+00 0. -1.
       21   -1    0    0  501  502  0.00000000000E+00  0.00000000000E+00 -0.94607937517E+03  0.94607937517E+03  0.00000000000E+00 0. -1.
        6    1    1    2  501    0  0.19872296466E+03 -0.12490244180E+01 -0.63553418096E+03  0.68831429007E+03  0.17430000000E+03 0. -1.
       -6    1    1    2    0  503 -0.19872296466E+03  0.12490244180E+01 -0.22268091571E+03  0.34562936358E+03  0.17430000000E+03 0. -1.
</event>
<event>
 4 661  0.7533903E-01  0.9118800E+02  0.7818608E-02  0.1300000E+00
       21   -1    0    0  502  503  0.00000000000E+00  0.00000000000E+00  0.49834124022E+03  0.49834124022E+03  0.00000000000E+00 0.  1.
       21   -1    0    0  501  502  0.00000000000E+00  0.00000000000E+00 -0.13413879829E+03  0.13413879829E+03  0.00000000000E+00 0.  1.
        6    1    1    2  501    0 -0.86992926094E+02 -0.15936256129E+03  0.10971643447E+03  0.27455852040E+03  0.17430000000E+03 0.  1.
       -6    1    1    2    0  503  0.86992926094E+02  0.15936256129E+03  0.25448600746E+03  0.35792151811E+03  0.17430000000E+03 0.  1.
</event>
<event>
 4 661  0.7533903E-01  0.9118800E+02  0.7818608E-02  0.1300000E+00
       21   -1    0    0  502  503  0.00000000000E+00  0.00000000000E+00  0.18050727150E+03  0.18050727150E+03  0.00000000000E+00 0.  1.
       21   -1    0    0  501  502  0.00000000000E+00  0.00000000000E+00 -0.30364614481E+03  0.30364614481E+03  0.00000000000E+00 0.  1.
        6    1    1    2  501    0 -0.17646719162E+02 -0.26717633868E+02 -0.21975704443E+03  0.28230991345E+03  0.17430000000E+03 0.  1.
       -6    1    1    2    0  503  0.17646719162E+02  0.26717633868E+02  0.96618171112E+02  0.20184350286E+03  0.17430000000E+03 0.  1.
</event>
<event>
 4 661  0.7533903E-01  0.9118800E+02  0.7818608E-02  0.1300000E+00
       21   -1    0    0  502  503  0.00000000000E+00  0.00000000000E+00  0.25889153858E+03  0.25889153858E+03  0.00000000000E+00 0. -1.
       21   -1    0    0  501  502  0.00000000000E+00  0.00000000000E+00 -0.15202259047E+03  0.15202259047E+03  0.00000000000E+00 0. -1.
        6    1    1    2  501    0  0.47922685298E+02  0.73312700217E+02  0.16014575456E+02  0.19572504287E+03  0.17430000000E+03 0. -1.
       -6    1    1    2    0  503 -0.47922685298E+02 -0.73312700217E+02  0.90854372652E+02  0.21518908618E+03  0.17430000000E+03 0. -1.
</event>
<event>
 4 661  0.7533903E-01  0.9118800E+02  0.7818608E-02  0.1300000E+00
       21   -1    0    0  501  502  0.00000000000E+00  0.00000000000E+00  0.17576400458E+03  0.17576400458E+03  0.00000000000E+00 0.  1.
       21   -1    0    0  502  503  0.00000000000E+00  0.00000000000E+00 -0.96715689589E+03  0.96715689589E+03  0.00000000000E+00 0.  1.
        6    1    1    2  501    0  0.18515887466E+03  0.29798394329E+03 -0.21748161409E+03  0.44805912756E+03  0.17430000000E+03 0.  1.
       -6    1    1    2    0  503 -0.18515887466E+03 -0.29798394329E+03 -0.57391127722E+03  0.69486177290E+03  0.17430000000E+03 0.  1.
</event>
<event>
 4 661  0.7533903E-01  0.9118800E+02  0.7818608E-02  0.1300000E+00
       21   -1    0    0  502  503  0.00000000000E+00  0.00000000000E+00  0.50773356598E+02  0.50773356598E+02  0.00000000000E+00 0. -1.
       21   -1    0    0  501  502  0.00000000000E+00  0.00000000000E+00 -0.72272617335E+03  0.72272617335E+03  0.00000000000E+00 0. -1.
        6    1    1    2  501    0  0.74325149694E+02  0.29278646137E+00 -0.39273831439E+03  0.43605984359E+03  0.17430000000E+03 0. -1.
       -6    1    1    2    0  503 -0.74325149694E+02 -0.29278646137E+00 -0.27921450236E+03  0.33743968636E+03  0.17430000000E+03 0. -1.
</event>
<event>
 4 661  0.7533903E-01  0.9118800E+02  0.7818608E-02  0.1300000E+00
       21   -1    0    0  501  502  0.00000000000E+00  0.00000000000E+00  0.46982101581E+02  0.46982101581E+02  0.00000000000E+00 0.  1.
       21   -1    0    0  502  503  0.00000000000E+00  0.00000000000E+00 -0.33852663951E+04  0.33852663951E+04  0.00000000000E+00 0. -1.
        6    1    1    2  501    0  0.30981392039E+03  0.39954187599E+02 -0.24278325200E+04  0.24540440578E+04  0.17430000000E+03 0.  1.
       -6    1    1    2    0  503 -0.30981392039E+03 -0.39954187599E+02 -0.91045177354E+03  0.97820443892E+03  0.17430000000E+03 0.  1.
</event>
<event>
 4 661  0.7533903E-01  0.9118800E+02  0.7818608E-02  0.1300000E+00
       21   -1    0    0  502  503  0.00000000000E+00  0.00000000000E+00  0.27990504213E+03  0.27990504213E+03  0.00000000000E+00 0.  1.
       21   -1    0    0  501  502  0.00000000000E+00  0.00000000000E+00 -0.23762080818E+03  0.23762080818E+03  0.00000000000E+00 0. -1.
        6    1    1    2  501    0  0.85301795354E+02 -0.49335570490E+02 -0.14194661879E+03  0.24543782796E+03  0.17430000000E+03 0. -1.
       -6    1    1    2    0  503 -0.85301795354E+02  0.49335570490E+02  0.18423085274E+03  0.27208802235E+03  0.17430000000E+03 0.  1.
</event>
<event>
 4 661  0.7533903E-01  0.9118800E+02  0.7818608E-02  0.1300000E+00
       21   -1    0    0  501  502  0.00000000000E+00  0.00000000000E+00  0.21340781925E+03  0.21340781925E+03  0.00000000000E+00 0. -1.
       21   -1    0    0  502  503  0.00000000000E+00  0.00000000000E+00 -0.38098851176E+03  0.38098851176E+03  0.00000000000E+00 0. -1.
        6    1    1    2  501    0 -0.39321580038E+02  0.60727388975E+02  0.13900310408E+03  0.23438505791E+03  0.17430000000E+03 0. -1.
       -6    1    1    2    0  503  0.39321580038E+02 -0.60727388975E+02 -0.30658379659E+03  0.36001127310E+03  0.17430000000E+03 0. -1.
</event>
<event>
 4 661  0.7533903E-01  0.9118800E+02  0.7818608E-02  0.1300000E+00
       21   -1    0    0  502  503  0.00000000000E+00  0.00000000000E+00  0.20754422569E+03  0.20754422569E+03  0.00000000000E+00 0. -1.
       21   -1    0    0  501  502  0.00000000000E+00  0.00000000000E+00 -0.35420578738E+03  0.35420578738E+03  0.00000000000E+00 0. -1.
        6    1    1    2  501    0  0.36869692527E+02  0.11751241025E+03 -0.24656440469E+03  0.32610280043E+03  0.17430000000E+03 0. -1.
       -6    1    1    2    0  503 -0.36869692527E+02 -0.11751241025E+03  0.99902842998E+02  0.23564721265E+03  0.17430000000E+03 0. -1.
</event>
<event>
 4 661  0.7533903E-01  0.9118800E+02  0.7818608E-02  0.1300000E+00
        2   -1    0    0  501    0  0.00000000000E+00  0.00000000000E+00  0.11278128102E+04  0.11278128102E+04  0.00000000000E+00 0.  1.
       -2   -1    0    0    0  502  0.00000000000E+00  0.00000000000E+00 -0.35005167800E+02  0.35005167800E+02  0.00000000000E+00 0. -1.
        6    1    1    2  501    0 -0.21837700997E+01  0.82882290852E+02  0.40839157723E+03  0.45170611391E+03  0.17430000000E+03 0. -1.
       -6    1    1    2    0  502  0.21837700997E+01 -0.82882290852E+02  0.68441606516E+03  0.71111186408E+03  0.17430000000E+03 0.  1.
</event>
<event>
 4 661  0.7533903E-01  0.9118800E+02  0.7818608E-02  0.1300000E+00
       21   -1    0    0  502  503  0.00000000000E+00  0.00000000000E+00  0.68266546533E+02  0.68266546533E+02  0.00000000000E+00 0.  1.
       21   -1    0    0  501  502  0.00000000000E+00  0.00000000000E+00 -0.56773356507E+03  0.56773356507E+03  0.00000000000E+00 0.  1.
        6    1    1    2  501    0 -0.22903618933E+02  0.24864479158E+02 -0.38711785415E+03  0.42589146632E+03  0.17430000000E+03 0.  1.
       -6    1    1    2    0  503  0.22903618933E+02 -0.24864479158E+02 -0.11234916439E+03  0.21010864528E+03  0.17430000000E+03 0.  1.
</event>
<event>
 4 661  0.7533903E-01  0.9118800E+02  0.7818608E-02  0.1300000E+00
       21   -1    0    0  502  503  0.00000000000E+00  0.00000000000E+00  0.37560963716E+03  0.37560963716E+03  0.00000000000E+00 0. -1.
       21   -1    0    0  501  502  0.00000000000E+00  0.00000000000E+00 -0.12606523722E+03  0.12606523722E+03  0.00000000000E+00 0. -1.
        6    1    1    2  501    0 -0.33821112783E+02 -0.29391291006E+02 -0.16233700846E+02  0.18069792113E+03  0.17430000000E+03 0. -1.
       -6    1    1    2    0  503  0.33821112783E+02  0.29391291006E+02  0.26577810079E+03  0.32097695325E+03  0.17430000000E+03 0. -1.
</event>
<event>
 4 661  0.7533903E-01  0.9118800E+02  0.7818608E-02  0.1300000E+00
       21   -1    0    0  501  502  0.00000000000E+00  0.00000000000E+00  0.25468169766E+03  0.25468169766E+03  0.00000000000E+00 0.  1.
       21   -1    0    0  502  503  0.00000000000E+00  0.00000000000E+00 -0.11109770999E+04  0.11109770999E+04  0.00000000000E+00 0. -1.
        6    1    1    2  501    0  0.75177838808E+02  0.53822861399E+02  0.20597066123E+03  0.28522449254E+03  0.17430000000E+03 0.  1.
       -6    1    1    2    0  503 -0.75177838808E+02 -0.53822861399E+02 -0.10622660635E+04  0.10804343050E+04  0.17430000000E+03 0. -1.
</event>
<event>
 4 661  0.7533903E-01  0.9118800E+02  0.7818608E-02  0.1300000E+00
       21   -1    0    0  502  503  0.00000000000E+00  0.00000000000E+00  0.34901953992E+03  0.34901953992E+03  0.00000000000E+00 0.  1.
       21   -1    0    0  501  502  0.00000000000E+00  0.00000000000E+00 -0.16765346542E+03  0.16765346542E+03  0.00000000000E+00 0.  1.
        6    1    1    2  501    0 -0.14033628619E+03 -0.13251360339E+02 -0.64012838481E+01  0.22425730358E+03  0.17430000000E+03 0.  1.
       -6    1    1    2    0  503  0.14033628619E+03  0.13251360339E+02  0.18776735836E+03  0.29241570176E+03  0.17430000000E+03 0.  1.
</event>
<event>
 4 661  0.7533903E-01  0.9118800E+02  0.7818608E-02  0.1300000E+00
       21   -1    0    0  502  503  0.00000000000E+00  0.00000000000E+00  0.33880905931E+03  0.33880905931E+03  0.00000000000E+00 0. -1.
       21   -1    0    0  501  502  0.00000000000E+00  0.00000000000E+00 -0.16845725198E+03  0.16845725198E+03  0.00000000000E+00 0. -1.
        6    1    1    2  501    0  0.19183920866E+01 -0.49727125451E+02 -0.80039971771E+02  0.19814982795E+03  0.17430000000E+03 0. -1.
       -6    1    1    2    0  503 -0.19183920866E+01  0.49727125451E+02  0.25039177910E+03  0.30911648334E+03  0.17430000000E+03 0. -1.
</event>
<event>
 4 661  0.7533903E-01  0.9118800E+02  0.7818608E-02  0.1300000E+00
       21   -1    0    0  501  502  0.00000000000E+00  0.00000000000E+00  0.11685658661E+04  0.11685658661E+04  0.00000000000E+00 0. -1.
       21   -1    0    0  502  503  0.00000000000E+00  0.00000000000E+00 -0.22980656609E+03  0.22980656609E+03  0.00000000000E+00 0.  1.
        6    1    1    2  501    0  0.14459279233E+03  0.44841021570E+03  0.64102775143E+03  0.81441750058E+03  0.17430000000E+03 0.  1.
       -6    1    1    2    0  503 -0.14459279233E+03 -0.44841021570E+03  0.29773154858E+03  0.58395493162E+03  0.17430000000E+03 0.  1.
</event>
<event>
 4 661  0.7533903E-01  0.9118800E+02  0.7818608E-02  0.1300000E+00
       21   -1    0    0  502  503  0.00000000000E+00  0.00000000000E+00  0.24126722556E+03  0.24126722556E+03  0.00000000000E+00 0.  1.
       21   -1    0    0  501  502  0.00000000000E+00  0.00000000000E+00 -0.43412838233E+03  0.43412838233E+03  0.00000000000E+00 0.  1.
        6    1    1    2  501    0 -0.32751454554E+02 -0.19335971656E+02 -0.37818790201E+03  0.41815441741E+03  0.17430000000E+03 0.  1.
       -6    1    1    2    0  503  0.32751454554E+02  0.19335971656E+02  0.18532674524E+03  0.25724119047E+03  0.17430000000E+03 0.  1.
</event>
<event>
 4 661  0.7533903E-01  0.9118800E+02  0.7818608E-02  0.1300000E+00
       21   -1    0    0  501  502  0.00000000000E+00  0.00000000000E+00  0.28390761145E+03  0.28390761145E+03  0.00000000000E+00 0.  1.
       21   -1    0    0  502  503  0.00000000000E+00  0.00000000000E+00 -0.31647538939E+03  0.31647538939E+03  0.00000000000E+00 0.  1.
        6    1    1    2  501    0 -0.68065923881E+02 -0.56165174162E+02  0.21138760378E+03  0.28784145951E+03  0.17430000000E+03 0.  1.
       -6    1    1    2    0  503  0.68065923881E+02  0.56165174162E+02 -0.24395538172E+03  0.31254154133E+03  0.17430000000E+03 0.  1.
</event>
<event>
 4 661  0.7533903E-01  0.9118800E+02  0.7818608E-02  0.1300000E+00
       21   -1    0    0  501  502  0.00000000000E+00  0.00000000000E+00  0.39195541503E+03  0.39195541503E+03  0.00000000000E+00 0.  1.
       21   -1    0    0  502  503  0.00000000000E+00  0.00000000000E+00 -0.95265704828E+02  0.95265704828E+02  0.00000000000E+00 0. -1.
        6    1    1    2  501    0 -0.54627721956E+02  0.40009676793E+02  0.20977642358E+03  0.28101886081E+03  0.17430000000E+03 0.  1.
       -6    1    1    2    0  503  0.54627721956E+02 -0.40009676793E+02  0.86913286624E+02  0.20620225904E+03  0.17430000000E+03 0. -1.
</event>
<event>
 4 661  0.7533903E-01  0.9118800E+02  0.7818608E-02  0.1300000E+00
       21   -1    0    0  502  503  0.00000000000E+00  0.00000000000E+00  0.10883815759E+03  0.10883815759E+03  0.00000000000E+00 0. -1.
       21   -1    0    0  501  502  0.00000000000E+00  0.00000000000E+00 -0.39050751345E+03  0.39050751345E+03  0.00000000000E+00 0.  1.
        6    1    1    2  501    0 -0.92382004430E+02  0.41419851500E+02 -0.88441915232E+02  0.22011928859E+03  0.17430000000E+03 0. -1.
       -6    1    1    2    0  503  0.92382004430E+02 -0.41419851500E+02 -0.19322744063E+03  0.27922638244E+03  0.17430000000E+03 0.  1.
</event>
<event>
 4 661  0.7533903E-01  0.9118800E+02  0.7818608E-02  0.1300000E+00
       21   -1    0    0  502  503  0.00000000000E+00  0.00000000000E+00  0.55384166512E+03  0.55384166512E+03  0.00000000000E+00 0. -1.
       21   -1    0    0  501  502  0.00000000000E+00  0.00000000000E+00 -0.39913850406E+03  0.39913850406E+03  0.00000000000E+00 0.  1.
        6    1    1    2  501    0  0.15047259153E+03 -0.84035131636E+02 -0.32925897444E+03  0.41048248001E+03  0.17430000000E+03 0.  1.
       -6    1    1    2    0  503 -0.15047259153E+03  0.84035131636E+02  0.48396213550E+03  0.54249768916E+03  0.17430000000E+03 0. -1.
</event>
<event>
 4 661  0.7533903E-01  0.9118800E+02  0.7818608E-02  0.1300000E+00
       21   -1    0    0  501  502  0.00000000000E+00  0.00000000000E+00  0.19963623661E+04  0.19963623661E+04  0.00000000000E+00 0. -1.
       21   -1    0    0  502  503  0.00000000000E+00  0.00000000000E+00 -0.31687226047E+02  0.31687226047E+02  0.00000000000E+00 0. -1.
        6    1    1    2  501    0 -0.78931792085E+01  0.66537918298E+02  0.30303606103E+03  0.35595075661E+03  0.17430000000E+03 0. -1.
       -6    1    1    2    0  503  0.78931792085E+01 -0.66537918298E+02  0.16616390790E+04  0.16720988355E+04  0.17430000000E+03 0. -1.
</event>
<event>
 4 661  0.7533903E-01  0.9118800E+02  0.7818608E-02  0.1300000E+00
       21   -1    0    0  502  503  0.00000000000E+00  0.00000000000E+00  0.12520315691E+03  0.12520315691E+03  0.00000000000E+00 0.  1.
       21   -1    0    0  501  502  0.00000000000E+00  0.00000000000E+00 -0.39566723743E+03  0.39566723743E+03  0.00000000000E+00 0. -1.
        6    1    1    2  501    0 -0.11701685362E+02 -0.11077500720E+03 -0.39095736206E+02  0.21051602849E+03  0.17430000000E+03 0.  1.
       -6    1    1    2    0  503  0.11701685362E+02  0.11077500720E+03 -0.23136834431E+03  0.31035436586E+03  0.17430000000E+03 0. -1.
</event>
<event>
 4 661  0.7533903E-01  0.9118800E+02  0.7818608E-02  0.1300000E+00
       21   -1    0    0  501  502  0.00000000000E+00  0.00000000000E+00  0.33638334714E+03  0.33638334714E+03  0.00000000000E+00 0.  1.
       21   -1    0    0  502  503  0.00000000000E+00  0.00000000000E+00 -0.14832509303E+03  0.14832509303E+03  0.00000000000E+00 0.  1.
        6    1    1    2  501    0 -0.70969519233E+02 -0.72785774015E+02  0.19797984443E+03  0.28268524963E+03  0.17430000000E+03 0.  1.
       -6    1    1    2    0  503  0.70969519233E+02  0.72785774015E+02 -0.99215903216E+01  0.20202319053E+03  0.17430000000E+03 0.  1.
</event>
<event>
 4 661  0.7533903E-01  0.9118800E+02  0.7818608E-02  0.1300000E+00
       21   -1    0    0  502  503  0.00000000000E+00  0.00000000000E+00  0.47064316136E+03  0.47064316136E+03  0.00000000000E+00 0.  1.
       21   -1    0    0  501  502  0.00000000000E+00  0.00000000000E+00 -0.95412189466E+02  0.95412189466E+02  0.00000000000E+00 0. -1.
        6    1    1    2  501    0  0.11670279506E+03  0.14728020783E+02  0.22265207903E+03  0.30625299226E+03  0.17430000000E+03 0.  1.
       -6    1    1    2    0  503 -0.11670279506E+03 -0.14728020783E+02  0.15257889287E+03  0.25980235857E+03  0.17430000000E+03 0. -1.
</event>
<event>
 4 661  0.7533903E-01  0.9118800E+02  0.7818608E-02  0.1300000E+00
       -1   -1    0    0    0  502  0.00000000000E+00  0.00000000000E+00  0.22047075802E+02  0.22047075802E+02  0.00000000000E+00 0.  1.
        1   -1    0    0  501    0  0.00000000000E+00  0.00000000000E+00 -0.37325313146E+04  0.37325313146E+04  0.00000000000E+00 0. -1.
        6    1    1    2  501    0 -0.10763763639E+03 -0.17317903914E+03 -0.11899847991E+04  0.12198447247E+04  0.17430000000E+03 0.  1.
       -6    1    1    2    0  502  0.10763763639E+03  0.17317903914E+03 -0.25204994397E+04  0.25347336657E+04  0.17430000000E+03 0. -1.
</event>
<event>
 4 661  0.7533903E-01  0.9118800E+02  0.7818608E-02  0.1300000E+00
       21   -1    0    0  502  503  0.00000000000E+00  0.00000000000E+00  0.16316550005E+03  0.16316550005E+03  0.00000000000E+00 0. -1.
       21   -1    0    0  501  502  0.00000000000E+00  0.00000000000E+00 -0.64141795334E+03  0.64141795334E+03  0.00000000000E+00 0. -1.
        6    1    1    2  501    0 -0.69725347414E+02  0.50934915319E+02 -0.56057532897E+03  0.59336428871E+03  0.17430000000E+03 0. -1.
       -6    1    1    2    0  503  0.69725347414E+02 -0.50934915319E+02  0.82322875674E+02  0.21121916468E+03  0.17430000000E+03 0. -1.
</event>
<event>
 4 661  0.7533903E-01  0.9118800E+02  0.7818608E-02  0.1300000E+00
       -2   -1    0    0    0  502  0.00000000000E+00  0.00000000000E+00  0.33098868429E+02  0.33098868429E+02  0.00000000000E+00 0.  1.
        2   -1    0    0  501    0  0.00000000000E+00  0.00000000000E+00 -0.16805785819E+04  0.16805785819E+04  0.00000000000E+00 0. -1.
        6    1    1    2  501    0 -0.99508232152E+02  0.93336518740E+02 -0.11195806309E+04  0.11412514504E+04  0.17430000000E+03 0. -1.
       -6    1    1    2    0  502  0.99508232152E+02 -0.93336518740E+02 -0.52789908261E+03  0.57242599995E+03  0.17430000000E+03 0.  1.
</event>
<event>
 4 661  0.7533903E-01  0.9118800E+02  0.7818608E-02  0.1300000E+00
       21   -1    0    0  502  503  0.00000000000E+00  0.00000000000E+00  0.86519754061E+03  0.86519754061E+03  0.00000000000E+00 0.  1.
       21   -1    0    0  501  502  0.00000000000E+00  0.00000000000E+00 -0.49907871831E+02  0.49907871831E+02  0.00000000000E+00 0.  1.
        6    1    1    2  501    0  0.13875679945E+02 -0.10562722550E+03  0.49149189905E+03  0.53225409542E+03  0.17430000000E+03 0.  1.
       -6    1    1    2    0  503 -0.13875679945E+02  0.10562722550E+03  0.32379776973E+03  0.38285131702E+03  0.17430000000E+03 0.  1.
</event>
<event>
 4 661  0.7533903E-01  0.9118800E+02  0.7818608E-02  0.1300000E+00
       -2   -1    0    0    0  502  0.00000000000E+00  0.00000000000E+00  0.15456413074E+03  0.15456413074E+03  0.00000000000E+00 0.  1.
        2   -1    0    0  501    0  0.00000000000E+00  0.00000000000E+00 -0.46989107275E+03  0.46989107275E+03  0.00000000000E+00 0. -1.
        6    1    1    2  501    0 -0.12258842644E+02  0.18677736025E+03 -0.59276230362E+02  0.26254565891E+03  0.17430000000E+03 0.  1.
       -6    1    1    2    0  502  0.12258842644E+02 -0.18677736025E+03 -0.25605071164E+03  0.36190954458E+03  0.17430000000E+03 0. -1.
</event>
<event>
 4 661  0.7533903E-01  0.9118800E+02  0.7818608E-02  0.1300000E+00
       21   -1    0    0  502  503  0.00000000000E+00  0.00000000000E+00  0.25676828417E+03  0.25676828417E+03  0.00000000000E+00 0.  1.
       21   -1    0    0  501  502  0.00000000000E+00  0.00000000000E+00 -0.20453577659E+03  0.20453577659E+03  0.00000000000E+00 0.  1.
        6    1    1    2  501    0  0.12562728451E+03  0.79681473645E+02  0.28674070620E+02  0.23094164670E+03  0.17430000000E+03 0.  1.
       -6    1    1    2    0  503 -0.12562728451E+03 -0.79681473645E+02  0.23558436962E+02  0.23036241405E+03  0.17430000000E+03 0.  1.
</event>
<event>
 4 661  0.7533903E-01  0.9118800E+02  0.7818608E-02  0.1300000E+00
       21   -1    0    0  501  502  0.00000000000E+00  0.00000000000E+00  0.29139638421E+03  0.29139638421E+03  0.00000000000E+00 0. -1.
       21   -1    0    0  502  503  0.00000000000E+00  0.00000000000E+00 -0.39797208392E+03  0.39797208392E+03  0.00000000000E+00 0. -1.
        6    1    1    2  501    0 -0.58181246889E+02 -0.94887469745E+02  0.22055661583E+03  0.30234814402E+03  0.17430000000E+03 0. -1.
       -6    1    1    2    0  503  0.58181246889E+02  0.94887469745E+02 -0.32713231554E+03  0.38702032411E+03  0.17430000000E+03 0. -1.
</event>
<event>
 4 661  0.7533903E-01  0.9118800E+02  0.7818608E-02  0.1300000E+00
       21   -1    0    0  501  502  0.00000000000E+00  0.00000000000E+00  0.11309159958E+03  0.11309159958E+03  0.00000000000E+00 0.  1.
       21   -1    0    0  502  503  0.00000000000E+00  0.00000000000E+00 -0.44179797256E+03  0.44179797256E+03  0.00000000000E+00 0.  1.
        6    1    1    2  501    0  0.25922255954E+02 -0.13086291452E+03 -0.21680982218E+03  0.30851913189E+03  0.17430000000E+03 0.  1.
       -6    1    1    2    0  503 -0.25922255954E+02  0.13086291452E+03 -0.11189655080E+03  0.24637044025E+03  0.17430000000E+03 0.  1.
</event>
<event>
 4 661  0.7533903E-01  0.9118800E+02  0.7818608E-02  0.1300000E+00
       -1   -1    0    0    0  502  0.00000000000E+00  0.00000000000E+00  0.13345049487E+03  0.13345049487E+03  0.00000000000E+00 0.  1.
        1   -1    0    0  501    0  0.00000000000E+00  0.00000000000E+00 -0.47698025771E+03  0.47698025771E+03  0.00000000000E+00 0. -1.
        6    1    1    2  501    0  0.70701129608E+02  0.16694984914E+03 -0.14751367908E+03  0.29156762058E+03  0.17430000000E+03 0. -1.
       -6    1    1    2    0  502 -0.70701129608E+02 -0.16694984914E+03 -0.19601608376E+03  0.31886313200E+03  0.17430000000E+03 0.  1.
</event>
<event>
 4 661  0.7533903E-01  0.9118800E+02  0.7818608E-02  0.1300000E+00
       21   -1    0    0  502  503  0.00000000000E+00  0.00000000000E+00  0.85552555954E+02  0.85552555954E+02  0.00000000000E+00 0. -1.
       21   -1    0    0  501  502  0.00000000000E+00  0.00000000000E+00 -0.11947860029E+04  0.11947860029E+04  0.00000000000E+00 0. -1.
        6    1    1    2  501    0  0.69735479580E+02 -0.37803336452E+02 -0.10672431510E+04  0.10842880441E+04  0.17430000000E+03 0. -1.
       -6    1    1    2    0  503 -0.69735479580E+02  0.37803336452E+02 -0.41990295955E+02  0.19605051470E+03  0.17430000000E+03 0. -1.
</event>
<event>
 4 661  0.7533903E-01  0.9118800E+02  0.7818608E-02  0.1300000E+00
       21   -1    0    0  501  502  0.00000000000E+00  0.00000000000E+00  0.18209042025E+02  0.18209042025E+02  0.00000000000E+00 0. -1.
       21   -1    0    0  502  503  0.00000000000E+00  0.00000000000E+00 -0.30684450957E+04  0.30684450957E+04  0.00000000000E+00 0.  1.
        6    1    1    2  501    0 -0.15844404068E+03 -0.18265215211E+02 -0.15734616234E+04  0.15911002804E+04  0.17430000000E+03 0.  1.
       -6    1    1    2    0  503  0.15844404068E+03  0.18265215211E+02 -0.14767744304E+04  0.14955538574E+04  0.17430000000E+03 0.  1.
</event>
<event>
 4 661  0.7533903E-01  0.9118800E+02  0.7818608E-02  0.1300000E+00
       21   -1    0    0  501  502  0.00000000000E+00  0.00000000000E+00  0.17288130358E+04  0.17288130358E+04  0.00000000000E+00 0.  1.
       21   -1    0    0  502  503  0.00000000000E+00  0.00000000000E+00 -0.89534146144E+02  0.89534146144E+02  0.00000000000E+00 0. -1.
        6    1    1    2  501    0 -0.18942910963E+03  0.25587861016E+02  0.15046491797E+04  0.15267245233E+04  0.17430000000E+03 0.  1.
       -6    1    1    2    0  503  0.18942910963E+03 -0.25587861016E+02  0.13462970996E+03  0.29162265860E+03  0.17430000000E+03 0. -1.
</event>
<event>
 4 661  0.7533903E-01  0.9118800E+02  0.7818608E-02  0.1300000E+00
       21   -1    0    0  502  503  0.00000000000E+00  0.00000000000E+00  0.26923691696E+03  0.26923691696E+03  0.00000000000E+00 0. -1.
       21   -1    0    0  501  502  0.00000000000E+00  0.00000000000E+00 -0.57256797975E+03  0.57256797975E+03  0.00000000000E+00 0.  1.
        6    1    1    2  501    0 -0.18229726310E+03 -0.67422653209E+01 -0.47415874752E+03  0.53710777143E+03  0.17430000000E+03 0.  1.
       -6    1    1    2    0  503  0.18229726310E+03  0.67422653209E+01  0.17082768473E+03  0.30469712527E+03  0.17430000000E+03 0. -1.
</event>
<event>
 4 661  0.7533903E-01  0.9118800E+02  0.7818608E-02  0.1300000E+00
       21   -1    0    0  502  503  0.00000000000E+00  0.00000000000E+00  0.68253462944E+03  0.68253462944E+03  0.00000000000E+00 0.  1.
       21   -1    0    0  501  502  0.00000000000E+00  0.00000000000E+00 -0.57508393463E+02  0.57508393463E+02  0.00000000000E+00 0.  1.
        6    1    1    2  501    0  0.41530579391E+02 -0.54287634160E+02  0.19148836338E+03  0.26780630978E+03  0.17430000000E+03 0.  1.
       -6    1    1    2    0  503 -0.41530579391E+02  0.54287634160E+02  0.43353787259E+03  0.47223671312E+03  0.17430000000E+03 0.  1.
</event>
<event>
 4 661  0.7533903E-01  0.9118800E+02  0.7818608E-02  0.1300000E+00
       21   -1    0    0  502  503  0.00000000000E+00  0.00000000000E+00  0.21791717548E+02  0.21791717548E+02  0.00000000000E+00 0. -1.
       21   -1    0    0  501  502  0.00000000000E+00  0.00000000000E+00 -0.28007517194E+04  0.28007517194E+04  0.00000000000E+00 0.  1.
        6    1    1    2  501    0  0.58486185404E+02 -0.13035800426E+03 -0.19675139497E+04  0.19803801341E+04  0.17430000000E+03 0. -1.
       -6    1    1    2    0  503 -0.58486185404E+02  0.13035800426E+03 -0.81144605212E+03  0.84216330285E+03  0.17430000000E+03 0.  1.
</event>
<event>
 4 661  0.7533903E-01  0.9118800E+02  0.7818608E-02  0.1300000E+00
       21   -1    0    0  501  502  0.00000000000E+00  0.00000000000E+00  0.70661431648E+03  0.70661431648E+03  0.00000000000E+00 0. -1.
       21   -1    0    0  502  503  0.00000000000E+00  0.00000000000E+00 -0.71341783906E+02  0.71341783906E+02  0.00000000000E+00 0. -1.
        6    1    1    2  501    0 -0.82883257403E+02  0.11245263795E+03  0.35696740485E+03  0.42109553342E+03  0.17430000000E+03 0. -1.
       -6    1    1    2    0  503  0.82883257403E+02 -0.11245263795E+03  0.27830512771E+03  0.35686056696E+03  0.17430000000E+03 0. -1.
</event>
<event>
 4 661  0.7533903E-01  0.9118800E+02  0.7818608E-02  0.1300000E+00
       -2   -1    0    0    0  502  0.00000000000E+00  0.00000000000E+00  0.35495313190E+02  0.35495313190E+02  0.00000000000E+00 0. -1.
        2   -1    0    0  501    0  0.00000000000E+00  0.00000000000E+00 -0.16117528886E+04  0.16117528886E+04  0.00000000000E+00 0.  1.
        6    1    1    2  501    0 -0.90303508957E+02  0.13350907125E+03 -0.88850933039E+03  0.91967859387E+03  0.17430000000E+03 0. -1.
       -6    1    1    2    0  502  0.90303508957E+02 -0.13350907125E+03 -0.68774824500E+03  0.72756960790E+03  0.17430000000E+03 0. -1.
</event>
<event>
 4 661  0.7533903E-01  0.9118800E+02  0.7818608E-02  0.1300000E+00
        2   -1    0    0  501    0  0.00000000000E+00  0.00000000000E+00  0.30814276820E+04  0.30814276820E+04  0.00000000000E+00 0. -1.
       -2   -1    0    0    0  502  0.00000000000E+00  0.00000000000E+00 -0.41348299417E+02  0.41348299417E+02  0.00000000000E+00 0.  1.
        6    1    1    2  501    0 -0.93108445980E+02  0.12263032479E+03  0.33555658408E+03  0.40827207887E+03  0.17430000000E+03 0.  1.
       -6    1    1    2    0  502  0.93108445980E+02 -0.12263032479E+03  0.27045227985E+04  0.27145039025E+04  0.17430000000E+03 0. -1.
</event>
<event>
 4 661  0.7533903E-01  0.9118800E+02  0.7818608E-02  0.1300000E+00
       21   -1    0    0  501  502  0.00000000000E+00  0.00000000000E+00  0.24083585376E+03  0.24083585376E+03  0.00000000000E+00 0. -1.
       21   -1    0    0  502  503  0.00000000000E+00  0.00000000000E+00 -0.23405813008E+03  0.23405813008E+03  0.00000000000E+00 0.  1.
        6    1    1    2  501    0  0.10887424294E+03  0.57975650474E+02 -0.10042114662E+03  0.23596540745E+03  0.17430000000E+03 0.  1.
       -6    1    1    2    0  503 -0.10887424294E+03 -0.57975650474E+02  0.10719887030E+03  0.23892857639E+03  0.17430000000E+03 0. -1.
</event>
<event>
 4 661  0.7533903E-01  0.9118800E+02  0.7818608E-02  0.1300000E+00
       21   -1    0    0  501  502  0.00000000000E+00  0.00000000000E+00  0.62520419385E+03  0.62520419385E+03  0.00000000000E+00 0. -1.
       21   -1    0    0  502  503  0.00000000000E+00  0.00000000000E+00 -0.18323855411E+03  0.18323855411E+03  0.00000000000E+00 0. -1.
        6    1    1    2  501    0 -0.28119132984E+03  0.48390010935E+02  0.15811800845E+03  0.36985396000E+03  0.17430000000E+03 0. -1.
       -6    1    1    2    0  503  0.28119132984E+03 -0.48390010935E+02  0.28384763129E+03  0.43858878796E+03  0.17430000000E+03 0. -1.
</event>
<event>
 4 661  0.7533903E-01  0.9118800E+02  0.7818608E-02  0.1300000E+00
       21   -1    0    0  501  502  0.00000000000E+00  0.00000000000E+00  0.47288594963E+02  0.47288594963E+02  0.00000000000E+00 0. -1.
       21   -1    0    0  502  503  0.00000000000E+00  0.00000000000E+00 -0.77003770909E+03  0.77003770909E+03  0.00000000000E+00 0. -1.
        6    1    1    2  501    0  0.19617235303E+02  0.70788727268E+02 -0.30729711245E+03  0.36084329722E+03  0.17430000000E+03 0.  1.
       -6    1    1    2    0  503 -0.19617235303E+02 -0.70788727268E+02 -0.41545200168E+03  0.45648300684E+03  0.17430000000E+03 0.  1.
</event>
<event>
 4 661  0.7533903E-01  0.9118800E+02  0.7818608E-02  0.1300000E+00
       21   -1    0    0  501  502  0.00000000000E+00  0.00000000000E+00  0.72069965942E+03  0.72069965942E+03  0.00000000000E+00 0. -1.
       21   -1    0    0  502  503  0.00000000000E+00  0.00000000000E+00 -0.16165665993E+03  0.16165665993E+03  0.00000000000E+00 0. -1.
        6    1    1    2  501    0 -0.36134393745E+02  0.13100714169E+03  0.61572010999E+03  0.65418675425E+03  0.17430000000E+03 0. -1.
       -6    1    1    2    0  503  0.36134393745E+02 -0.13100714169E+03 -0.56677110506E+02  0.22816956510E+03  0.17430000000E+03 0. -1.
</event>
<event>
 4 661  0.7533903E-01  0.9118800E+02  0.7818608E-02  0.1300000E+00
        3   -1    0    0  501    0  0.00000000000E+00  0.00000000000E+00  0.19766458940E+03  0.19766458940E+03  0.00000000000E+00 0. -1.
       -3   -1    0    0    0  502  0.00000000000E+00  0.00000000000E+00 -0.16681745202E+03  0.16681745202E+03  0.00000000000E+00 0.  1.
        6    1    1    2  501    0 -0.11456433347E+01 -0.45525870934E+02  0.38298086782E+02  0.18417695533E+03  0.17430000000E+03 0.  1.
       -6    1    1    2    0  502  0.11456433347E+01  0.45525870934E+02 -0.74509493976E+01  0.18030508609E+03  0.17430000000E+03 0.  1.
</event>
<event>
 4 661  0.7533903E-01  0.9118800E+02  0.7818608E-02  0.1300000E+00
       21   -1    0    0  502  503  0.00000000000E+00  0.00000000000E+00  0.11171118517E+03  0.11171118517E+03  0.00000000000E+00 0.  1.
       21   -1    0    0  501  502  0.00000000000E+00  0.00000000000E+00 -0.29215059979E+03  0.29215059979E+03  0.00000000000E+00 0.  1.
        6    1    1    2  501    0 -0.40095732067E+01  0.33416349519E+02 -0.12768190497E+03  0.21866844297E+03  0.17430000000E+03 0.  1.
       -6    1    1    2    0  503  0.40095732067E+01 -0.33416349519E+02 -0.52757509650E+02  0.18519334199E+03  0.17430000000E+03 0.  1.
</event>
<event>
 4 661  0.7533903E-01  0.9118800E+02  0.7818608E-02  0.1300000E+00
       21   -1    0    0  502  503  0.00000000000E+00  0.00000000000E+00  0.40910334781E+03  0.40910334781E+03  0.00000000000E+00 0.  1.
       21   -1    0    0  501  502  0.00000000000E+00  0.00000000000E+00 -0.11739459030E+03  0.11739459030E+03  0.00000000000E+00 0.  1.
        6    1    1    2  501    0  0.61763658995E+02  0.80578904229E+02  0.42952226415E+02  0.20623552830E+03  0.17430000000E+03 0.  1.
       -6    1    1    2    0  503 -0.61763658995E+02 -0.80578904229E+02  0.24875653110E+03  0.32026240982E+03  0.17430000000E+03 0.  1.
</event>
<event>
 4 661  0.7533903E-01  0.9118800E+02  0.7818608E-02  0.1300000E+00
       21   -1    0    0  501  502  0.00000000000E+00  0.00000000000E+00  0.20163729812E+03  0.20163729812E+03  0.00000000000E+00 0. -1.
       21   -1    0    0  502  503  0.00000000000E+00  0.00000000000E+00 -0.16224759663E+03  0.16224759663E+03  0.00000000000E+00 0. -1.
        6    1    1    2  501    0 -0.38828605298E+02 -0.11601492015E+02  0.46164295368E+02  0.18480770377E+03  0.17430000000E+03 0.  1.
       -6    1    1    2    0  503  0.38828605298E+02  0.11601492015E+02 -0.67745938818E+01  0.17907719098E+03  0.17430000000E+03 0.  1.
</event>
<event>
 4 661  0.7533903E-01  0.9118800E+02  0.7818608E-02  0.1300000E+00
       21   -1    0    0  501  502  0.00000000000E+00  0.00000000000E+00  0.78664300690E+03  0.78664300690E+03  0.00000000000E+00 0. -1.
       21   -1    0    0  502  503  0.00000000000E+00  0.00000000000E+00 -0.83898456875E+02  0.83898456875E+02  0.00000000000E+00 0.  1.
        6    1    1    2  501    0  0.51747620422E+01  0.18701580502E+03  0.39342247772E+03  0.46921575577E+03  0.17430000000E+03 0.  1.
       -6    1    1    2    0  503 -0.51747620422E+01 -0.18701580502E+03  0.30932207231E+03  0.40132570801E+03  0.17430000000E+03 0. -1.
</event>
<event>
 4 661  0.7533903E-01  0.9118800E+02  0.7818608E-02  0.1300000E+00
       21   -1    0    0  502  503  0.00000000000E+00  0.00000000000E+00  0.27994096228E+03  0.27994096228E+03  0.00000000000E+00 0. -1.
       21   -1    0    0  501  502  0.00000000000E+00  0.00000000000E+00 -0.15664525475E+03  0.15664525475E+03  0.00000000000E+00 0.  1.
        6    1    1    2  501    0  0.10776813804E+03  0.12620143551E+02  0.18696401471E+02  0.20616324849E+03  0.17430000000E+03 0.  1.
       -6    1    1    2    0  503 -0.10776813804E+03 -0.12620143551E+02  0.10459930606E+03  0.23042296853E+03  0.17430000000E+03 0. -1.
</event>
<event>
 4 661  0.7533903E-01  0.9118800E+02  0.7818608E-02  0.1300000E+00
       21   -1    0    0  502  503  0.00000000000E+00  0.00000000000E+00  0.74248411663E+03  0.74248411663E+03  0.00000000000E+00 0.  1.
       21   -1    0    0  501  502  0.00000000000E+00  0.00000000000E+00 -0.64640488193E+02  0.64640488193E+02  0.00000000000E+00 0.  1.
        6    1    1    2  501    0  0.68038242494E+02 -0.77003828123E+02  0.49365056304E+03  0.53350741361E+03  0.17430000000E+03 0.  1.
       -6    1    1    2    0  503 -0.68038242494E+02  0.77003828123E+02  0.18419306540E+03  0.27361719121E+03  0.17430000000E+03 0.  1.
</event>
<event>
 4 661  0.7533903E-01  0.9118800E+02  0.7818608E-02  0.1300000E+00
       21   -1    0    0  502  503  0.00000000000E+00  0.00000000000E+00  0.52406058026E+03  0.52406058026E+03  0.00000000000E+00 0. -1.
       21   -1    0    0  501  502  0.00000000000E+00  0.00000000000E+00 -0.65653546132E+02  0.65653546132E+02  0.00000000000E+00 0.  1.
        6    1    1    2  501    0 -0.60891389938E+02 -0.70345580623E+01  0.20314649350E+03  0.27460195592E+03  0.17430000000E+03 0.  1.
       -6    1    1    2    0  503  0.60891389938E+02  0.70345580623E+01  0.25526054063E+03  0.31511217047E+03  0.17430000000E+03 0. -1.
</event>
<event>
 4 661  0.7533903E-01  0.9118800E+02  0.7818608E-02  0.1300000E+00
       21   -1    0    0  502  503  0.00000000000E+00  0.00000000000E+00  0.10791100888E+03  0.10791100888E+03  0.00000000000E+00 0.  1.
       21   -1    0    0  501  502  0.00000000000E+00  0.00000000000E+00 -0.34422086112E+03  0.34422086112E+03  0.00000000000E+00 0.  1.
        6    1    1    2  501    0  0.34401738075E+02  0.53999126508E+02 -0.17871137280E+03  0.25771618112E+03  0.17430000000E+03 0.  1.
       -6    1    1    2    0  503 -0.34401738075E+02 -0.53999126508E+02 -0.57598479446E+02  0.19441568888E+03  0.17430000000E+03 0.  1.
</event>
<event>
 4 661  0.7533903E-01  0.9118800E+02  0.7818608E-02  0.1300000E+00
       21   -1    0    0  501  502  0.00000000000E+00  0.00000000000E+00  0.18227304839E+04  0.18227304839E+04  0.00000000000E+00 0.  1.
       21   -1    0    0  502  503  0.00000000000E+00  0.00000000000E+00 -0.78443073658E+02  0.78443073658E+02  0.00000000000E+00 0. -1.
        6    1    1    2  501    0 -0.56702428747E+02 -0.12503918445E+03  0.16418750565E+04  0.16567993706E+04  0.17430000000E+03 0.  1.
       -6    1    1    2    0  503  0.56702428747E+02  0.12503918445E+03  0.10241235372E+03  0.24437418699E+03  0.17430000000E+03 0. -1.
</event>
<event>
 4 661  0.7533903E-01  0.9118800E+02  0.7818608E-02  0.1300000E+00
       21   -1    0    0  502  503  0.00000000000E+00  0.00000000000E+00  0.11266536741E+03  0.11266536741E+03  0.00000000000E+00 0.  1.
       21   -1    0    0  501  502  0.00000000000E+00  0.00000000000E+00 -0.57778040423E+03  0.57778040423E+03  0.00000000000E+00 0.  1.
        6    1    1    2  501    0  0.17256579717E+03 -0.69976891260E+02 -0.22403937002E+03  0.33948468151E+03  0.17430000000E+03 0.  1.
       -6    1    1    2    0  503 -0.17256579717E+03  0.69976891260E+02 -0.24107566680E+03  0.35096109013E+03  0.17430000000E+03 0.  1.
</event>
<event>
 4 661  0.7533903E-01  0.9118800E+02  0.7818608E-02  0.1300000E+00
       21   -1    0    0  501  502  0.00000000000E+00  0.00000000000E+00  0.73565373147E+03  0.73565373147E+03  0.00000000000E+00 0.  1.
       21   -1    0    0  502  503  0.00000000000E+00  0.00000000000E+00 -0.13262021517E+03  0.13262021517E+03  0.00000000000E+00 0.  1.
        6    1    1    2  501    0 -0.24070852689E+03  0.16192017334E+02  0.43322294721E+03  0.52560953980E+03  0.17430000000E+03 0.  1.
       -6    1    1    2    0  503  0.24070852689E+03 -0.16192017334E+02  0.16981056909E+03  0.34266440684E+03  0.17430000000E+03 0.  1.
</event>
<event>
 4 661  0.7533903E-01  0.9118800E+02  0.7818608E-02  0.1300000E+00
       21   -1    0    0  502  503  0.00000000000E+00  0.00000000000E+00  0.22749375023E+03  0.22749375023E+03  0.00000000000E+00 0.  1.
       21   -1    0    0  501  502  0.00000000000E+00  0.00000000000E+00 -0.45292982793E+03  0.45292982793E+03  0.00000000000E+00 0.  1.
        6    1    1    2  501    0 -0.14967942597E+03  0.25582596296E+02  0.12332391042E+03  0.26200701645E+03  0.17430000000E+03 0.  1.
       -6    1    1    2    0  503  0.14967942597E+03 -0.25582596296E+02 -0.34875998812E+03  0.41841656170E+03  0.17430000000E+03 0.  1.
</event>
<event>
 4 661  0.7533903E-01  0.9118800E+02  0.7818608E-02  0.1300000E+00
       21   -1    0    0  502  503  0.00000000000E+00  0.00000000000E+00  0.70225976881E+03  0.70225976881E+03  0.00000000000E+00 0.  1.
       21   -1    0    0  501  502  0.00000000000E+00  0.00000000000E+00 -0.10418365779E+03  0.10418365779E+03  0.00000000000E+00 0.  1.
        6    1    1    2  501    0 -0.99753800682E+02 -0.14803166335E+03  0.14326484877E+03  0.28769689084E+03  0.17430000000E+03 0.  1.
       -6    1    1    2    0  503  0.99753800682E+02  0.14803166335E+03  0.45481126224E+03  0.51874653576E+03  0.17430000000E+03 0.  1.
</event>
<event>
 4 661  0.7533903E-01  0.9118800E+02  0.7818608E-02  0.1300000E+00
       21   -1    0    0  501  502  0.00000000000E+00  0.00000000000E+00  0.47596323111E+03  0.47596323111E+03  0.00000000000E+00 0.  1.
       21   -1    0    0  502  503  0.00000000000E+00  0.00000000000E+00 -0.31139018072E+03  0.31139018072E+03  0.00000000000E+00 0.  1.
        6    1    1    2  501    0  0.41340548583E+02  0.38486472845E+02  0.42851897684E+03  0.46604640655E+03  0.17430000000E+03 0.  1.
       -6    1    1    2    0  503 -0.41340548583E+02 -0.38486472845E+02 -0.26394592645E+03  0.32130700528E+03  0.17430000000E+03 0.  1.
</event>
<event>
 4 661  0.7533903E-01  0.9118800E+02  0.7818608E-02  0.1300000E+00
       21   -1    0    0  502  503  0.00000000000E+00  0.00000000000E+00  0.55466497030E+03  0.55466497030E+03  0.00000000000E+00 0.  1.
       21   -1    0    0  501  502  0.00000000000E+00  0.00000000000E+00 -0.81378028943E+02  0.81378028943E+02  0.00000000000E+00 0.  1.
        6    1    1    2  501    0 -0.26392196437E+01 -0.11962253413E+03  0.20522549788E+03  0.29464302321E+03  0.17430000000E+03 0.  1.
       -6    1    1    2    0  503  0.26392196437E+01  0.11962253413E+03  0.26806144348E+03  0.34139997603E+03  0.17430000000E+03 0.  1.
</event>
<event>
 4 661  0.7533903E-01  0.9118800E+02  0.7818608E-02  0.1300000E+00
       21   -1    0    0  501  502  0.00000000000E+00  0.00000000000E+00  0.93293661462E+02  0.93293661462E+02  0.00000000000E+00 0.  1.
       21   -1    0    0  502  503  0.00000000000E+00  0.00000000000E+00 -0.86629162530E+03  0.86629162530E+03  0.00000000000E+00 0. -1.
        6    1    1    2  501    0 -0.12234620277E+03  0.87742831426E+02 -0.10524664379E+03  0.25322863943E+03  0.17430000000E+03 0.  1.
       -6    1    1    2    0  503  0.12234620277E+03 -0.87742831426E+02 -0.66775132004E+03  0.70635664732E+03  0.17430000000E+03 0. -1.
</event>
<event>
 4 661  0.7533903E-01  0.9118800E+02  0.7818608E-02  0.1300000E+00
       21   -1    0    0  502  503  0.00000000000E+00  0.00000000000E+00  0.26207150741E+03  0.26207150741E+03  0.00000000000E+00 0. -1.
       21   -1    0    0  501  502  0.00000000000E+00  0.00000000000E+00 -0.31897528694E+03  0.31897528694E+03  0.00000000000E+00 0.  1.
        6    1    1    2  501    0  0.24707882016E+01  0.18799174034E+03 -0.16276444997E+03  0.30367705776E+03  0.17430000000E+03 0.  1.
       -6    1    1    2    0  503 -0.24707882016E+01 -0.18799174034E+03  0.10586067045E+03  0.27736973660E+03  0.17430000000E+03 0. -1.
</event>
<event>
 4 661  0.7533903E-01  0.9118800E+02  0.7818608E-02  0.1300000E+00
       21   -1    0    0  502  503  0.00000000000E+00  0.00000000000E+00  0.20587565824E+03  0.20587565824E+03  0.00000000000E+00 0.  1.
       21   -1    0    0  501  502  0.00000000000E+00  0.00000000000E+00 -0.15183014346E+03  0.15183014346E+03  0.00000000000E+00 0.  1.
        6    1    1    2  501    0  0.81826032193E+01  0.28461885188E+02  0.27810790669E+02  0.17897196423E+03  0.17430000000E+03 0.  1.
       -6    1    1    2    0  503 -0.81826032193E+01 -0.28461885188E+02  0.26234724113E+02  0.17873383746E+03  0.17430000000E+03 0.  1.
</event>
<event>
 4 661  0.7533903E-01  0.9118800E+02  0.7818608E-02  0.1300000E+00
       21   -1    0    0  502  503  0.00000000000E+00  0.00000000000E+00  0.16813802493E+03  0.16813802493E+03  0.00000000000E+00 0.  1.
       21   -1    0    0  501  502  0.00000000000E+00  0.00000000000E+00 -0.19863701430E+03  0.19863701430E+03  0.00000000000E+00 0.  1.
        6    1    1    2  501    0 -0.51310008768E+02  0.18246133958E+02 -0.22506977746E+02  0.18399101188E+03  0.17430000000E+03 0.  1.
       -6    1    1    2    0  503  0.51310008768E+02 -0.18246133958E+02 -0.79920116258E+01  0.18278402735E+03  0.17430000000E+03 0.  1.
</event>
<event>
 4 661  0.7533903E-01  0.9118800E+02  0.7818608E-02  0.1300000E+00
       21   -1    0    0  501  502  0.00000000000E+00  0.00000000000E+00  0.11572564631E+04  0.11572564631E+04  0.00000000000E+00 0.  1.
       21   -1    0    0  502  503  0.00000000000E+00  0.00000000000E+00 -0.59855290900E+02  0.59855290900E+02  0.00000000000E+00 0. -1.
        6    1    1    2  501    0 -0.17686116834E+03 -0.76435988483E+02  0.45155592887E+03  0.52096600667E+03  0.17430000000E+03 0. -1.
       -6    1    1    2    0  503  0.17686116834E+03  0.76435988483E+02  0.64584524332E+03  0.69614574733E+03  0.17430000000E+03 0. -1.
</event>
<event>
 4 661  0.7533903E-01  0.9118800E+02  0.7818608E-02  0.1300000E+00
       21   -1    0    0  502  503  0.00000000000E+00  0.00000000000E+00  0.31206935034E+03  0.31206935034E+03  0.00000000000E+00 0. -1.
       21   -1    0    0  501  502  0.00000000000E+00  0.00000000000E+00 -0.14720451770E+03  0.14720451770E+03  0.00000000000E+00 0. -1.
        6    1    1    2  501    0  0.49167317064E+02 -0.53611770983E+02  0.19098839025E+03  0.26860510469E+03  0.17430000000E+03 0. -1.
       -6    1    1    2    0  503 -0.49167317064E+02  0.53611770983E+02 -0.26123557617E+02  0.19066876335E+03  0.17430000000E+03 0. -1.
</event>
<event>
 4 661  0.7533903E-01  0.9118800E+02  0.7818608E-02  0.1300000E+00
       21   -1    0    0  502  503  0.00000000000E+00  0.00000000000E+00  0.65321174283E+03  0.65321174283E+03  0.00000000000E+00 0. -1.
       21   -1    0    0  501  502  0.00000000000E+00  0.00000000000E+00 -0.62587623525E+02  0.62587623525E+02  0.00000000000E+00 0. -1.
        6    1    1    2  501    0  0.75126630093E+02 -0.67832580789E+02  0.32370006805E+03  0.38132334524E+03  0.17430000000E+03 0.  1.
       -6    1    1    2    0  503 -0.75126630093E+02  0.67832580789E+02  0.26692405125E+03  0.33447602112E+03  0.17430000000E+03 0.  1.
</event>
<event>
 4 661  0.7533903E-01  0.9118800E+02  0.7818608E-02  0.1300000E+00
       21   -1    0    0  502  503  0.00000000000E+00  0.00000000000E+00  0.18885975144E+03  0.18885975144E+03  0.00000000000E+00 0.  1.
       21   -1    0    0  501  502  0.00000000000E+00  0.00000000000E+00 -0.17906985904E+03  0.17906985904E+03  0.00000000000E+00 0. -1.
        6    1    1    2  501    0 -0.47107293440E+02  0.33072516852E+02 -0.63210988625E+01  0.18366636806E+03  0.17430000000E+03 0. -1.
       -6    1    1    2    0  503  0.47107293440E+02 -0.33072516852E+02  0.16110991269E+02  0.18426324242E+03  0.17430000000E+03 0. -1.
</event>
<event>
 4 661  0.7533903E-01  0.9118800E+02  0.7818608E-02  0.1300000E+00
       21   -1    0    0  501  502  0.00000000000E+00  0.00000000000E+00  0.58205570960E+03  0.58205570960E+03  0.00000000000E+00 0.  1.
       21   -1    0    0  502  503  0.00000000000E+00  0.00000000000E+00 -0.20213342506E+03  0.20213342506E+03  0.00000000000E+00 0.  1.
        6    1    1    2  501    0  0.13015239359E+03 -0.84887218992E+02  0.47716934873E+03  0.53124058850E+03  0.17430000000E+03 0.  1.
       -6    1    1    2    0  503 -0.13015239359E+03  0.84887218992E+02 -0.97247064193E+02  0.25294854615E+03  0.17430000000E+03 0.  1.
</event>
<event>
 4 661  0.7533903E-01  0.9118800E+02  0.7818608E-02  0.1300000E+00
       21   -1    0    0  502  503  0.00000000000E+00  0.00000000000E+00  0.26353990758E+02  0.26353990758E+02  0.00000000000E+00 0.  1.
       21   -1    0    0  501  502  0.00000000000E+00  0.00000000000E+00 -0.12258604608E+04  0.12258604608E+04  0.00000000000E+00 0.  1.
        6    1    1    2  501    0 -0.21979522432E+02 -0.25699812864E+02 -0.69717960695E+03  0.71943274469E+03  0.17430000000E+03 0.  1.
       -6    1    1    2    0  503  0.21979522432E+02  0.25699812864E+02 -0.50232686308E+03  0.53278170685E+03  0.17430000000E+03 0.  1.
</event>
<event>
 4 661  0.7533903E-01  0.9118800E+02  0.7818608E-02  0.1300000E+00
       21   -1    0    0  502  503  0.00000000000E+00  0.00000000000E+00  0.16688254476E+03  0.16688254476E+03  0.00000000000E+00 0. -1.
       21   -1    0    0  501  502  0.00000000000E+00  0.00000000000E+00 -0.31280164396E+03  0.31280164396E+03  0.00000000000E+00 0. -1.
        6    1    1    2  501    0 -0.80396765076E+02 -0.11457241629E+03 -0.12253355699E+03  0.25492242153E+03  0.17430000000E+03 0. -1.
       -6    1    1    2    0  503  0.80396765076E+02  0.11457241629E+03 -0.23385542215E+02  0.22476176720E+03  0.17430000000E+03 0. -1.
</event>
<event>
 4 661  0.7533903E-01  0.9118800E+02  0.7818608E-02  0.1300000E+00
       21   -1    0    0  501  502  0.00000000000E+00  0.00000000000E+00  0.30821274574E+03  0.30821274574E+03  0.00000000000E+00 0. -1.
       21   -1    0    0  502  503  0.00000000000E+00  0.00000000000E+00 -0.15712453283E+03  0.15712453283E+03  0.00000000000E+00 0. -1.
        6    1    1    2  501    0  0.42727229578E+01 -0.40537005150E+02 -0.59795287881E+02  0.18872591608E+03  0.17430000000E+03 0. -1.
       -6    1    1    2    0  503 -0.42727229578E+01  0.40537005150E+02  0.21088350080E+03  0.27661136249E+03  0.17430000000E+03 0. -1.
</event>
<event>
 4 661  0.7533903E-01  0.9118800E+02  0.7818608E-02  0.1300000E+00
       21   -1    0    0  501  502  0.00000000000E+00  0.00000000000E+00  0.24799534201E+03  0.24799534201E+03  0.00000000000E+00 0. -1.
       21   -1    0    0  502  503  0.00000000000E+00  0.00000000000E+00 -0.13277764085E+03  0.13277764085E+03  0.00000000000E+00 0. -1.
        6    1    1    2  501    0  0.38451293394E+02  0.14079253471E+01  0.91884640023E+02  0.20075796694E+03  0.17430000000E+03 0. -1.
       -6    1    1    2    0  503 -0.38451293394E+02 -0.14079253471E+01  0.23333061139E+02  0.18001501593E+03  0.17430000000E+03 0. -1.
</event>
<event>
 4 661  0.7533903E-01  0.9118800E+02  0.7818608E-02  0.1300000E+00
       21   -1    0    0  501  502  0.00000000000E+00  0.00000000000E+00  0.16103261638E+03  0.16103261638E+03  0.00000000000E+00 0. -1.
       21   -1    0    0  502  503  0.00000000000E+00  0.00000000000E+00 -0.40731480794E+03  0.40731480794E+03  0.00000000000E+00 0. -1.
        6    1    1    2  501    0  0.10566029117E+03 -0.57085921953E+02  0.36838221449E+02  0.21484981772E+03  0.17430000000E+03 0. -1.
       -6    1    1    2    0  503 -0.10566029117E+03  0.57085921953E+02 -0.28312041300E+03  0.35349760660E+03  0.17430000000E+03 0. -1.
</event>
<event>
 4 661  0.7533903E-01  0.9118800E+02  0.7818608E-02  0.1300000E+00
       -2   -1    0    0    0  502  0.00000000000E+00  0.00000000000E+00  0.28747836160E+02  0.28747836160E+02  0.00000000000E+00 0. -1.
        2   -1    0    0  501    0  0.00000000000E+00  0.00000000000E+00 -0.12421656178E+04  0.12421656178E+04  0.00000000000E+00 0.  1.
        6    1    1    2  501    0 -0.29822658325E+02 -0.63773044845E+02 -0.54179040638E+03  0.57347513167E+03  0.17430000000E+03 0. -1.
       -6    1    1    2    0  502  0.29822658325E+02  0.63773044845E+02 -0.67162737523E+03  0.69743832226E+03  0.17430000000E+03 0.  1.
</event>
<event>
 4 661  0.7533903E-01  0.9118800E+02  0.7818608E-02  0.1300000E+00
       21   -1    0    0  502  503  0.00000000000E+00  0.00000000000E+00  0.61029282522E+02  0.61029282522E+02  0.00000000000E+00 0.  1.
       21   -1    0    0  501  502  0.00000000000E+00  0.00000000000E+00 -0.58930771052E+03  0.58930771052E+03  0.00000000000E+00 0.  1.
        6    1    1    2  501    0  0.67556885817E+02  0.31858959285E+02 -0.26007782261E+03  0.32186936779E+03  0.17430000000E+03 0.  1.
       -6    1    1    2    0  503 -0.67556885817E+02 -0.31858959285E+02 -0.26820060539E+03  0.32846762525E+03  0.17430000000E+03 0.  1.
</event>
<event>
 4 661  0.7533903E-01  0.9118800E+02  0.7818608E-02  0.1300000E+00
       21   -1    0    0  501  502  0.00000000000E+00  0.00000000000E+00  0.50904585925E+03  0.50904585925E+03  0.00000000000E+00 0.  1.
       21   -1    0    0  502  503  0.00000000000E+00  0.00000000000E+00 -0.11979233134E+03  0.11979233134E+03  0.00000000000E+00 0.  1.
        6    1    1    2  501    0  0.14513634880E+03  0.89469568608E+02  0.24442944178E+03  0.34524716575E+03  0.17430000000E+03 0.  1.
       -6    1    1    2    0  503 -0.14513634880E+03 -0.89469568608E+02  0.14482408613E+03  0.28359102484E+03  0.17430000000E+03 0.  1.
</event>
<event>
 4 661  0.7533903E-01  0.9118800E+02  0.7818608E-02  0.1300000E+00
       21   -1    0    0  501  502  0.00000000000E+00  0.00000000000E+00  0.34996815300E+02  0.34996815300E+02  0.00000000000E+00 0. -1.
       21   -1    0    0  502  503  0.00000000000E+00  0.00000000000E+00 -0.11481811392E+04  0.11481811392E+04  0.00000000000E+00 0. -1.
        6    1    1    2  501    0 -0.97259004382E+02  0.11033270314E+02 -0.51270470489E+03  0.55029778430E+03  0.17430000000E+03 0. -1.
       -6    1    1    2    0  503  0.97259004382E+02 -0.11033270314E+02 -0.60047961901E+03  0.63288017020E+03  0.17430000000E+03 0. -1.
</event>
<event>
 4 661  0.7533903E-01  0.9118800E+02  0.7818608E-02  0.1300000E+00
       21   -1    0    0  502  503  0.00000000000E+00  0.00000000000E+00  0.18451292774E+03  0.18451292774E+03  0.00000000000E+00 0. -1.
       21   -1    0    0  501  502  0.00000000000E+00  0.00000000000E+00 -0.75470606086E+03  0.75470606086E+03  0.00000000000E+00 0. -1.
        6    1    1    2  501    0  0.16718332586E+03  0.12606035984E+03 -0.60601521411E+03  0.66443691085E+03  0.17430000000E+03 0. -1.
       -6    1    1    2    0  503 -0.16718332586E+03 -0.12606035984E+03  0.35822080984E+02  0.27478207775E+03  0.17430000000E+03 0. -1.
</event>
<event>
 4 661  0.7533903E-01  0.9118800E+02  0.7818608E-02  0.1300000E+00
       21   -1    0    0  502  503  0.00000000000E+00  0.00000000000E+00  0.88963597504E+03  0.88963597504E+03  0.00000000000E+00 0.  1.
       21   -1    0    0  501  502  0.00000000000E+00  0.00000000000E+00 -0.35582752151E+02  0.35582752151E+02  0.00000000000E+00 0.  1.
        6    1    1    2  501    0 -0.77528674558E+01 -0.34606166505E+02  0.43790751389E+03  0.47265333431E+03  0.17430000000E+03 0. -1.
       -6    1    1    2    0  503  0.77528674558E+01  0.34606166505E+02  0.41614570900E+03  0.45256539288E+03  0.17430000000E+03 0. -1.
</event>
<event>
 4 661  0.7533903E-01  0.9118800E+02  0.7818608E-02  0.1300000E+00
        1   -1    0    0  501    0  0.00000000000E+00  0.00000000000E+00  0.10263661048E+03  0.10263661048E+03  0.00000000000E+00 0. -1.
       -1   -1    0    0    0  502  0.00000000000E+00  0.00000000000E+00 -0.39317704022E+03  0.39317704022E+03  0.00000000000E+00 0.  1.
        6    1    1    2  501    0  0.21433795835E+01 -0.32937982607E+02 -0.26159076017E+03  0.31606917056E+03  0.17430000000E+03 0.  1.
       -6    1    1    2    0  502 -0.21433795835E+01  0.32937982607E+02 -0.28949669576E+02  0.17974448015E+03  0.17430000000E+03 0. -1.
</event>
<event>
 4 661  0.7533903E-01  0.9118800E+02  0.7818608E-02  0.1300000E+00
       21   -1    0    0  501  502  0.00000000000E+00  0.00000000000E+00  0.20677490619E+03  0.20677490619E+03  0.00000000000E+00 0.  1.
       21   -1    0    0  502  503  0.00000000000E+00  0.00000000000E+00 -0.22035595409E+03  0.22035595409E+03  0.00000000000E+00 0.  1.
        6    1    1    2  501    0 -0.15763057419E+02  0.60363127941E+02  0.99524279997E+02  0.21018504586E+03  0.17430000000E+03 0.  1.
       -6    1    1    2    0  503  0.15763057419E+02 -0.60363127941E+02 -0.11310532791E+03  0.21694581442E+03  0.17430000000E+03 0.  1.
</event>
<event>
 4 661  0.7533903E-01  0.9118800E+02  0.7818608E-02  0.1300000E+00
       21   -1    0    0  501  502  0.00000000000E+00  0.00000000000E+00  0.30468857573E+02  0.30468857573E+02  0.00000000000E+00 0.  1.
       21   -1    0    0  502  503  0.00000000000E+00  0.00000000000E+00 -0.15567365427E+04  0.15567365427E+04  0.00000000000E+00 0.  1.
        6    1    1    2  501    0 -0.12615803949E+01  0.76622713034E+02 -0.37786286587E+03  0.42312346560E+03  0.17430000000E+03 0.  1.
       -6    1    1    2    0  503  0.12615803949E+01 -0.76622713034E+02 -0.11484048193E+04  0.11640819347E+04  0.17430000000E+03 0.  1.
</event>
<event>
 4 661  0.7533903E-01  0.9118800E+02  0.7818608E-02  0.1300000E+00
       21   -1    0    0  501  502  0.00000000000E+00  0.00000000000E+00  0.13500183869E+03  0.13500183869E+03  0.00000000000E+00 0. -1.
       21   -1    0    0  502  503  0.00000000000E+00  0.00000000000E+00 -0.28521551677E+03  0.28521551677E+03  0.00000000000E+00 0. -1.
        6    1    1    2  501    0 -0.66838235487E+02  0.57040093674E+02 -0.96607494530E+02  0.21779444439E+03  0.17430000000E+03 0.  1.
       -6    1    1    2    0  503  0.66838235487E+02 -0.57040093674E+02 -0.53606183556E+02  0.20242291107E+03  0.17430000000E+03 0.  1.
</event>
<event>
 4 661  0.7533903E-01  0.9118800E+02  0.7818608E-02  0.1300000E+00
       21   -1    0    0  501  502  0.00000000000E+00  0.00000000000E+00  0.59332374532E+03  0.59332374532E+03  0.00000000000E+00 0.  1.
       21   -1    0    0  502  503  0.00000000000E+00  0.00000000000E+00 -0.11198216822E+03  0.11198216822E+03  0.00000000000E+00 0.  1.
        6    1    1    2  501    0  0.62145204800E+01 -0.16919830779E+03  0.35831801391E+03  0.43294223254E+03  0.17430000000E+03 0.  1.
       -6    1    1    2    0  503 -0.62145204800E+01  0.16919830779E+03  0.12302356319E+03  0.27236368099E+03  0.17430000000E+03 0.  1.
</event>
<event>
 4 661  0.7533903E-01  0.9118800E+02  0.7818608E-02  0.1300000E+00
       21   -1    0    0  502  503  0.00000000000E+00  0.00000000000E+00  0.41137508233E+04  0.41137508233E+04  0.00000000000E+00 0.  1.
       21   -1    0    0  501  502  0.00000000000E+00  0.00000000000E+00 -0.37935956658E+02  0.37935956658E+02  0.00000000000E+00 0.  1.
        6    1    1    2  501    0  0.28275542958E+03 -0.10241054365E+03  0.10514730263E+04  0.11074360332E+04  0.17430000000E+03 0.  1.
       -6    1    1    2    0  503 -0.28275542958E+03  0.10241054365E+03  0.30243418403E+04  0.30442507468E+04  0.17430000000E+03 0.  1.
</event>
<event>
 4 661  0.7533903E-01  0.9118800E+02  0.7818608E-02  0.1300000E+00
       21   -1    0    0  502  503  0.00000000000E+00  0.00000000000E+00  0.11035507828E+03  0.11035507828E+03  0.00000000000E+00 0. -1.
       21   -1    0    0  501  502  0.00000000000E+00  0.00000000000E+00 -0.31368527259E+03  0.31368527259E+03  0.00000000000E+00 0.  1.
        6    1    1    2  501    0 -0.37019389252E+02 -0.46189739087E+02 -0.13250350957E+03  0.22680740117E+03  0.17430000000E+03 0. -1.
       -6    1    1    2    0  503  0.37019389252E+02  0.46189739087E+02 -0.70826684740E+02  0.19723294970E+03  0.17430000000E+03 0.  1.
</event>
<event>
 4 661  0.7533903E-01  0.9118800E+02  0.7818608E-02  0.1300000E+00
       21   -1    0    0  501  502  0.00000000000E+00  0.00000000000E+00  0.14389321806E+03  0.14389321806E+03  0.00000000000E+00 0. -1.
       21   -1    0    0  502  503  0.00000000000E+00  0.00000000000E+00 -0.43308696314E+03  0.43308696314E+03  0.00000000000E+00 0.  1.
        6    1    1    2  501    0  0.14241580335E+03 -0.71462264535E+02 -0.23811585066E+03  0.33536363045E+03  0.17430000000E+03 0. -1.
       -6    1    1    2    0  503 -0.14241580335E+03  0.71462264535E+02 -0.51077894418E+02  0.24161655074E+03  0.17430000000E+03 0.  1.
</event>
<event>
 4 661  0.7533903E-01  0.9118800E+02  0.7818608E-02  0.1300000E+00
       21   -1    0    0  502  503  0.00000000000E+00  0.00000000000E+00  0.15865660857E+03  0.15865660857E+03  0.00000000000E+00 0.  1.
       21   -1    0    0  501  502  0.00000000000E+00  0.00000000000E+00 -0.25622729688E+03  0.25622729688E+03  0.00000000000E+00 0.  1.
        6    1    1    2  501    0  0.86264479949E+02 -0.40039090889E+02 -0.84824333651E+02  0.21591745386E+03  0.17430000000E+03 0.  1.
       -6    1    1    2    0  503 -0.86264479949E+02  0.40039090889E+02 -0.12746354660E+02  0.19896645159E+03  0.17430000000E+03 0.  1.
</event>
<event>
 4 661  0.7533903E-01  0.9118800E+02  0.7818608E-02  0.1300000E+00
        2   -1    0    0  501    0  0.00000000000E+00  0.00000000000E+00  0.23507604939E+03  0.23507604939E+03  0.00000000000E+00 0. -1.
       -2   -1    0    0    0  502  0.00000000000E+00  0.00000000000E+00 -0.23019714600E+03  0.23019714600E+03  0.00000000000E+00 0.  1.
        6    1    1    2  501    0 -0.43002360325E+02  0.64874857680E+02  0.13539560718E+03  0.23403078985E+03  0.17430000000E+03 0. -1.
       -6    1    1    2    0  502  0.43002360325E+02 -0.64874857680E+02 -0.13051670380E+03  0.23124240555E+03  0.17430000000E+03 0.  1.
</event>
<event>
 4 661  0.7533903E-01  0.9118800E+02  0.7818608E-02  0.1300000E+00
       21   -1    0    0  502  503  0.00000000000E+00  0.00000000000E+00  0.26371581165E+03  0.26371581165E+03  0.00000000000E+00 0. -1.
       21   -1    0    0  501  502  0.00000000000E+00  0.00000000000E+00 -0.63951146991E+03  0.63951146991E+03  0.00000000000E+00 0.  1.
        6    1    1    2  501    0  0.89785077328E+02 -0.33965406062E+01 -0.58469946218E+03  0.61670645179E+03  0.17430000000E+03 0.  1.
       -6    1    1    2    0  503 -0.89785077328E+02  0.33965406062E+01  0.20890380393E+03  0.28652082977E+03  0.17430000000E+03 0. -1.
</event>
<event>
 4 661  0.7533903E-01  0.9118800E+02  0.7818608E-02  0.1300000E+00
       21   -1    0    0  501  502  0.00000000000E+00  0.00000000000E+00  0.83938390382E+03  0.83938390382E+03  0.00000000000E+00 0.  1.
       21   -1    0    0  502  503  0.00000000000E+00  0.00000000000E+00 -0.93131946915E+02  0.93131946915E+02  0.00000000000E+00 0. -1.
        6    1    1    2  501    0 -0.18019751049E+03  0.12177127102E+03  0.33607700341E+03  0.43660923885E+03  0.17430000000E+03 0. -1.
       -6    1    1    2    0  503  0.18019751049E+03 -0.12177127102E+03  0.41017495350E+03  0.49590661188E+03  0.17430000000E+03 0.  1.
</event>
<event>
 4 661  0.7533903E-01  0.9118800E+02  0.7818608E-02  0.1300000E+00
       21   -1    0    0  502  503  0.00000000000E+00  0.00000000000E+00  0.78683277224E+03  0.78683277224E+03  0.00000000000E+00 0.  1.
       21   -1    0    0  501  502  0.00000000000E+00  0.00000000000E+00 -0.50946434871E+02  0.50946434871E+02  0.00000000000E+00 0. -1.
        6    1    1    2  501    0 -0.32267580277E+02  0.93070896089E+02  0.36467094545E+03  0.41601535655E+03  0.17430000000E+03 0.  1.
       -6    1    1    2    0  503  0.32267580277E+02 -0.93070896089E+02  0.37121539192E+03  0.42176385055E+03  0.17430000000E+03 0.  1.
</event>
<event>
 4 661  0.7533903E-01  0.9118800E+02  0.7818608E-02  0.1300000E+00
       21   -1    0    0  502  503  0.00000000000E+00  0.00000000000E+00  0.40068245734E+03  0.40068245734E+03  0.00000000000E+00 0.  1.
       21   -1    0    0  501  502  0.00000000000E+00  0.00000000000E+00 -0.14246466099E+03  0.14246466099E+03  0.00000000000E+00 0.  1.
        6    1    1    2  501    0 -0.24082309238E+02  0.10971076779E+03 -0.57968703545E+01  0.20743795191E+03  0.17430000000E+03 0.  1.
       -6    1    1    2    0  503  0.24082309238E+02 -0.10971076779E+03  0.26401466670E+03  0.33570916642E+03  0.17430000000E+03 0.  1.
</event>
<event>
 4 661  0.7533903E-01  0.9118800E+02  0.7818608E-02  0.1300000E+00
       21   -1    0    0  501  502  0.00000000000E+00  0.00000000000E+00  0.30003187089E+03  0.30003187089E+03  0.00000000000E+00 0. -1.
       21   -1    0    0  502  503  0.00000000000E+00  0.00000000000E+00 -0.37960922903E+03  0.37960922903E+03  0.00000000000E+00 0. -1.
        6    1    1    2  501    0  0.33008396980E+01 -0.79849214014E+02  0.23985333910E+03  0.30707801419E+03  0.17430000000E+03 0. -1.
       -6    1    1    2    0  503 -0.33008396980E+01  0.79849214014E+02 -0.31943069723E+03  0.37256308573E+03  0.17430000000E+03 0. -1.
</event>
<event>
 4 661  0.7533903E-01  0.9118800E+02  0.7818608E-02  0.1300000E+00
       21   -1    0    0  501  502  0.00000000000E+00  0.00000000000E+00  0.11707842382E+04  0.11707842382E+04  0.00000000000E+00 0. -1.
       21   -1    0    0  502  503  0.00000000000E+00  0.00000000000E+00 -0.48230175870E+02  0.48230175870E+02  0.00000000000E+00 0. -1.
        6    1    1    2  501    0 -0.15506405854E+03  0.27773641990E+02  0.46985484126E+03  0.52531923560E+03  0.17430000000E+03 0. -1.
       -6    1    1    2    0  503  0.15506405854E+03 -0.27773641990E+02  0.65269922105E+03  0.69369517844E+03  0.17430000000E+03 0. -1.
</event>
<event>
 4 661  0.7533903E-01  0.9118800E+02  0.7818608E-02  0.1300000E+00
       21   -1    0    0  501  502  0.00000000000E+00  0.00000000000E+00  0.85570182460E+03  0.85570182460E+03  0.00000000000E+00 0. -1.
       21   -1    0    0  502  503  0.00000000000E+00  0.00000000000E+00 -0.46031057213E+02  0.46031057213E+02  0.00000000000E+00 0. -1.
        6    1    1    2  501    0 -0.33702552402E+02  0.86231849936E+02  0.45230229450E+03  0.49348723346E+03  0.17430000000E+03 0.  1.
       -6    1    1    2    0  503  0.33702552402E+02 -0.86231849936E+02  0.35736847289E+03  0.40824564835E+03  0.17430000000E+03 0.  1.
</event>
<event>
 4 661  0.7533903E-01  0.9118800E+02  0.7818608E-02  0.1300000E+00
       21   -1    0    0  501  502  0.00000000000E+00  0.00000000000E+00  0.10978862546E+04  0.10978862546E+04  0.00000000000E+00 0.  1.
       21   -1    0    0  502  503  0.00000000000E+00  0.00000000000E+00 -0.57919557136E+02  0.57919557136E+02  0.00000000000E+00 0.  1.
        6    1    1    2  501    0 -0.18171157639E+02 -0.31700909564E+02  0.92912922000E+03  0.94604267140E+03  0.17430000000E+03 0.  1.
       -6    1    1    2    0  503  0.18171157639E+02  0.31700909564E+02  0.11083747747E+03  0.20976314035E+03  0.17430000000E+03 0.  1.
</event>
<event>
 4 661  0.7533903E-01  0.9118800E+02  0.7818608E-02  0.1300000E+00
       21   -1    0    0  501  502  0.00000000000E+00  0.00000000000E+00  0.29274837329E+03  0.29274837329E+03  0.00000000000E+00 0. -1.
       21   -1    0    0  502  503  0.00000000000E+00  0.00000000000E+00 -0.22132749296E+03  0.22132749296E+03  0.00000000000E+00 0. -1.
        6    1    1    2  501    0 -0.73890492999E+01  0.72554670807E+02  0.20795042333E+03  0.28096734128E+03  0.17430000000E+03 0. -1.
       -6    1    1    2    0  503  0.73890492999E+01 -0.72554670807E+02 -0.13652954299E+03  0.23310852497E+03  0.17430000000E+03 0. -1.
</event>
<event>
 4 661  0.7533903E-01  0.9118800E+02  0.7818608E-02  0.1300000E+00
       21   -1    0    0  501  502  0.00000000000E+00  0.00000000000E+00  0.28993455218E+03  0.28993455218E+03  0.00000000000E+00 0.  1.
       21   -1    0    0  502  503  0.00000000000E+00  0.00000000000E+00 -0.11447737926E+03  0.11447737926E+03  0.00000000000E+00 0.  1.
        6    1    1    2  501    0 -0.23271222795E+02 -0.46969533327E+02  0.78935060737E+02  0.19839082813E+03  0.17430000000E+03 0.  1.
       -6    1    1    2    0  503  0.23271222795E+02  0.46969533327E+02  0.96522112177E+02  0.20602110331E+03  0.17430000000E+03 0.  1.
</event>
<event>
 4 661  0.7533903E-01  0.9118800E+02  0.7818608E-02  0.1300000E+00
       21   -1    0    0  502  503  0.00000000000E+00  0.00000000000E+00  0.24376654550E+03  0.24376654550E+03  0.00000000000E+00 0. -1.
       21   -1    0    0  501  502  0.00000000000E+00  0.00000000000E+00 -0.38979149984E+03  0.38979149984E+03  0.00000000000E+00 0.  1.
        6    1    1    2  501    0 -0.50467324218E+02  0.24796828241E+03 -0.47789173725E+02  0.31096545631E+03  0.17430000000E+03 0.  1.
       -6    1    1    2    0  503  0.50467324218E+02 -0.24796828241E+03 -0.98235780614E+02  0.32259258902E+03  0.17430000000E+03 0. -1.
</event>
<event>
 4 661  0.7533903E-01  0.9118800E+02  0.7818608E-02  0.1300000E+00
       21   -1    0    0  501  502  0.00000000000E+00  0.00000000000E+00  0.21570920326E+03  0.21570920326E+03  0.00000000000E+00 0.  1.
       21   -1    0    0  502  503  0.00000000000E+00  0.00000000000E+00 -0.41093609060E+03  0.41093609060E+03  0.00000000000E+00 0. -1.
        6    1    1    2  501    0 -0.10126985446E+03  0.19921192189E+03 -0.16150071466E+01  0.28341501635E+03  0.17430000000E+03 0. -1.
       -6    1    1    2    0  503  0.10126985446E+03 -0.19921192189E+03 -0.19361188020E+03  0.34323027751E+03  0.17430000000E+03 0. -1.
</event>
<event>
 4 661  0.7533903E-01  0.9118800E+02  0.7818608E-02  0.1300000E+00
       -3   -1    0    0    0  502  0.00000000000E+00  0.00000000000E+00  0.59716311275E+02  0.59716311275E+02  0.00000000000E+00 0.  1.
        3   -1    0    0  501    0  0.00000000000E+00  0.00000000000E+00 -0.11315753498E+04  0.11315753498E+04  0.00000000000E+00 0. -1.
        6    1    1    2  501    0 -0.11636882423E+03  0.10432937163E+02 -0.88751089400E+03  0.91197950985E+03  0.17430000000E+03 0. -1.
       -6    1    1    2    0  502  0.11636882423E+03 -0.10432937163E+02 -0.18434814454E+03  0.27931215123E+03  0.17430000000E+03 0.  1.
</event>
<event>
 4 661  0.7533903E-01  0.9118800E+02  0.7818608E-02  0.1300000E+00
       21   -1    0    0  501  502  0.00000000000E+00  0.00000000000E+00  0.31110376031E+03  0.31110376031E+03  0.00000000000E+00 0. -1.
       21   -1    0    0  502  503  0.00000000000E+00  0.00000000000E+00 -0.12609337185E+03  0.12609337185E+03  0.00000000000E+00 0. -1.
        6    1    1    2  501    0 -0.43650607299E+02  0.75367100211E+02  0.13171439624E+03  0.23519087458E+03  0.17430000000E+03 0.  1.
       -6    1    1    2    0  503  0.43650607299E+02 -0.75367100211E+02  0.53295992222E+02  0.20200625757E+03  0.17430000000E+03 0.  1.
</event>
<event>
 4 661  0.7533903E-01  0.9118800E+02  0.7818608E-02  0.1300000E+00
       -2   -1    0    0    0  502  0.00000000000E+00  0.00000000000E+00  0.56269279530E+02  0.56269279530E+02  0.00000000000E+00 0. -1.
        2   -1    0    0  501    0  0.00000000000E+00  0.00000000000E+00 -0.17779650788E+04  0.17779650788E+04  0.00000000000E+00 0.  1.
        6    1    1    2  501    0 -0.10702054643E+03 -0.53032658983E+02 -0.15433066376E+04  0.15577039924E+04  0.17430000000E+03 0.  1.
       -6    1    1    2    0  502  0.10702054643E+03  0.53032658983E+02 -0.17838916166E+03  0.27653036591E+03  0.17430000000E+03 0. -1.
</event>
<event>
 4 661  0.7533903E-01  0.9118800E+02  0.7818608E-02  0.1300000E+00
       21   -1    0    0  502  503  0.00000000000E+00  0.00000000000E+00  0.16449138958E+03  0.16449138958E+03  0.00000000000E+00 0. -1.
       21   -1    0    0  501  502  0.00000000000E+00  0.00000000000E+00 -0.52819336134E+03  0.52819336134E+03  0.00000000000E+00 0. -1.
        6    1    1    2  501    0  0.14169141554E+03 -0.11637140383E+03 -0.35959853999E+03  0.43967074139E+03  0.17430000000E+03 0. -1.
       -6    1    1    2    0  503 -0.14169141554E+03  0.11637140383E+03 -0.41034317667E+01  0.25301400953E+03  0.17430000000E+03 0. -1.
</event>
<event>
 4 661  0.7533903E-01  0.9118800E+02  0.7818608E-02  0.1300000E+00
       21   -1    0    0  502  503  0.00000000000E+00  0.00000000000E+00  0.14728109510E+03  0.14728109510E+03  0.00000000000E+00 0.  1.
       21   -1    0    0  501  502  0.00000000000E+00  0.00000000000E+00 -0.30585262547E+03  0.30585262547E+03  0.00000000000E+00 0. -1.
        6    1    1    2  501    0 -0.26410426973E+02 -0.11143784881E+03 -0.37259510033E+02  0.21186001484E+03  0.17430000000E+03 0.  1.
       -6    1    1    2    0  503  0.26410426973E+02  0.11143784881E+03 -0.12131202033E+03  0.24127370573E+03  0.17430000000E+03 0. -1.
</event>
<event>
 4 661  0.7533903E-01  0.9118800E+02  0.7818608E-02  0.1300000E+00
       21   -1    0    0  501  502  0.00000000000E+00  0.00000000000E+00  0.37829807864E+03  0.37829807864E+03  0.00000000000E+00 0.  1.
       21   -1    0    0  502  503  0.00000000000E+00  0.00000000000E+00 -0.12277050687E+03  0.12277050687E+03  0.00000000000E+00 0.  1.
        6    1    1    2  501    0 -0.56866417154E+02 -0.11304584757E+03  0.13600083055E+03  0.25473489938E+03  0.17430000000E+03 0.  1.
       -6    1    1    2    0  503  0.56866417154E+02  0.11304584757E+03  0.11952674122E+03  0.24633368613E+03  0.17430000000E+03 0.  1.
</event>
<event>
 4 661  0.7533903E-01  0.9118800E+02  0.7818608E-02  0.1300000E+00
       21   -1    0    0  501  502  0.00000000000E+00  0.00000000000E+00  0.56436209813E+03  0.56436209813E+03  0.00000000000E+00 0. -1.
       21   -1    0    0  502  503  0.00000000000E+00  0.00000000000E+00 -0.13598331375E+03  0.13598331375E+03  0.00000000000E+00 0. -1.
        6    1    1    2  501    0  0.40148018438E+02 -0.12322366642E+03  0.43154314949E+03  0.48312101509E+03  0.17430000000E+03 0. -1.
       -6    1    1    2    0  503 -0.40148018438E+02  0.12322366642E+03 -0.31643651159E+01  0.21722439678E+03  0.17430000000E+03 0. -1.
</event>
<event>
 4 661  0.7533903E-01  0.9118800E+02  0.7818608E-02  0.1300000E+00
       21   -1    0    0  502  503  0.00000000000E+00  0.00000000000E+00  0.21922201490E+03  0.21922201490E+03  0.00000000000E+00 0.  1.
       21   -1    0    0  501  502  0.00000000000E+00  0.00000000000E+00 -0.30440380069E+03  0.30440380069E+03  0.00000000000E+00 0.  1.
        6    1    1    2  501    0 -0.12282872224E+03  0.97895351306E+02 -0.15212928448E+03  0.27963226568E+03  0.17430000000E+03 0.  1.
       -6    1    1    2    0  503  0.12282872224E+03 -0.97895351306E+02  0.66947498684E+02  0.24399354990E+03  0.17430000000E+03 0.  1.
</event>
<event>
 4 661  0.7533903E-01  0.9118800E+02  0.7818608E-02  0.1300000E+00
       21   -1    0    0  502  503  0.00000000000E+00  0.00000000000E+00  0.94092444874E+02  0.94092444874E+02  0.00000000000E+00 0.  1.
       21   -1    0    0  501  502  0.00000000000E+00  0.00000000000E+00 -0.44327805239E+03  0.44327805239E+03  0.00000000000E+00 0.  1.
        6    1    1    2  501    0 -0.25031491379E+02 -0.62387223769E+02 -0.28315989544E+03  0.33923260108E+03  0.17430000000E+03 0.  1.
       -6    1    1    2    0  503  0.25031491379E+02  0.62387223769E+02 -0.66025712081E+02  0.19813789619E+03  0.17430000000E+03 0.  1.
</event>
<event>
 4 661  0.7533903E-01  0.9118800E+02  0.7818608E-02  0.1300000E+00
       21   -1    0    0  501  502  0.00000000000E+00  0.00000000000E+00  0.87576814745E+03  0.87576814745E+03  0.00000000000E+00 0.  1.
       21   -1    0    0  502  503  0.00000000000E+00  0.00000000000E+00 -0.23041680913E+03  0.23041680913E+03  0.00000000000E+00 0.  1.
        6    1    1    2  501    0  0.15779367516E+03  0.16510854071E+03  0.74786082598E+03  0.80114666521E+03  0.17430000000E+03 0.  1.
       -6    1    1    2    0  503 -0.15779367516E+03 -0.16510854071E+03 -0.10250948767E+03  0.30503829137E+03  0.17430000000E+03 0.  1.
</event>
<event>
 4 661  0.7533903E-01  0.9118800E+02  0.7818608E-02  0.1300000E+00
       21   -1    0    0  502  503  0.00000000000E+00  0.00000000000E+00  0.10025732301E+03  0.10025732301E+03  0.00000000000E+00 0. -1.
       21   -1    0    0  501  502  0.00000000000E+00  0.00000000000E+00 -0.39493636561E+03  0.39493636561E+03  0.00000000000E+00 0. -1.
        6    1    1    2  501    0 -0.24554959590E+02 -0.61916332691E+02 -0.23335079948E+03  0.29878029372E+03  0.17430000000E+03 0. -1.
       -6    1    1    2    0  503  0.24554959590E+02  0.61916332691E+02 -0.61328243114E+02  0.19641339490E+03  0.17430000000E+03 0. -1.
</event>
<event>
 4 661  0.7533903E-01  0.9118800E+02  0.7818608E-02  0.1300000E+00
       21   -1    0    0  502  503  0.00000000000E+00  0.00000000000E+00  0.66831801146E+02  0.66831801146E+02  0.00000000000E+00 0.  1.
       21   -1    0    0  501  502  0.00000000000E+00  0.00000000000E+00 -0.86345963031E+03  0.86345963031E+03  0.00000000000E+00 0.  1.
        6    1    1    2  501    0  0.64111027793E+02  0.69189786305E+02 -0.66117291579E+03  0.69023732511E+03  0.17430000000E+03 0.  1.
       -6    1    1    2    0  503 -0.64111027793E+02 -0.69189786305E+02 -0.13545491338E+03  0.24005410634E+03  0.17430000000E+03 0.  1.
</event>
<event>
 4 661  0.7533903E-01  0.9118800E+02  0.7818608E-02  0.1300000E+00
       21   -1    0    0  502  503  0.00000000000E+00  0.00000000000E+00  0.88918098875E+03  0.88918098875E+03  0.00000000000E+00 0.  1.
       21   -1    0    0  501  502  0.00000000000E+00  0.00000000000E+00 -0.12874461169E+03  0.12874461169E+03  0.00000000000E+00 0.  1.
        6    1    1    2  501    0  0.10926993205E+03  0.42814436911E+02 -0.18694196668E+02  0.21095723985E+03  0.17430000000E+03 0.  1.
       -6    1    1    2    0  503 -0.10926993205E+03 -0.42814436911E+02  0.77913057373E+03  0.80696836059E+03  0.17430000000E+03 0.  1.
</event>
<event>
 4 661  0.7533903E-01  0.9118800E+02  0.7818608E-02  0.1300000E+00
       21   -1    0    0  502  503  0.00000000000E+00  0.00000000000E+00  0.14609802977E+03  0.14609802977E+03  0.00000000000E+00 0. -1.
       21   -1    0    0  501  502  0.00000000000E+00  0.00000000000E+00 -0.16086848376E+04  0.16086848376E+04  0.00000000000E+00 0.  1.
        6    1    1    2  501    0 -0.62484145355E+02 -0.32044805700E+03 -0.12980131126E+04  0.13497443299E+04  0.17430000000E+03 0.  1.
       -6    1    1    2    0  503  0.62484145355E+02  0.32044805700E+03 -0.16457369521E+03  0.40503853744E+03  0.17430000000E+03 0. -1.
</event>
<event>
 4 661  0.7533903E-01  0.9118800E+02  0.7818608E-02  0.1300000E+00
       -2   -1    0    0    0  502  0.00000000000E+00  0.00000000000E+00  0.25708004182E+02  0.25708004182E+02  0.00000000000E+00 0.  1.
        2   -1    0    0  501    0  0.00000000000E+00  0.00000000000E+00 -0.20086862925E+04  0.20086862925E+04  0.00000000000E+00 0. -1.
        6    1    1    2  501    0  0.11136641692E+03  0.19148259112E+02 -0.57904908934E+03  0.61518084537E+03  0.17430000000E+03 0.  1.
       -6    1    1    2    0  502 -0.11136641692E+03 -0.19148259112E+02 -0.14039291990E+04  0.14192134513E+04  0.17430000000E+03 0. -1.
</event>
<event>
 4 661  0.7533903E-01  0.9118800E+02  0.7818608E-02  0.1300000E+00
       21   -1    0    0  501  502  0.00000000000E+00  0.00000000000E+00  0.14454220361E+02  0.14454220361E+02  0.00000000000E+00 0.  1.
       21   -1    0    0  502  503  0.00000000000E+00  0.00000000000E+00 -0.35836684553E+04  0.35836684553E+04  0.00000000000E+00 0. -1.
        6    1    1    2  501    0  0.75210380812E+02  0.96535145930E+02 -0.11501108809E+04  0.11696628421E+04  0.17430000000E+03 0.  1.
       -6    1    1    2    0  503 -0.75210380812E+02 -0.96535145930E+02 -0.24191033540E+04  0.24284598336E+04  0.17430000000E+03 0.  1.
</event>
<event>
 4 661  0.7533903E-01  0.9118800E+02  0.7818608E-02  0.1300000E+00
       21   -1    0    0  501  502  0.00000000000E+00  0.00000000000E+00  0.41030093877E+02  0.41030093877E+02  0.00000000000E+00 0. -1.
       21   -1    0    0  502  503  0.00000000000E+00  0.00000000000E+00 -0.16968546090E+04  0.16968546090E+04  0.00000000000E+00 0.  1.
        6    1    1    2  501    0 -0.10007611264E+03 -0.16273642961E+03 -0.65542806488E+03  0.70460259159E+03  0.17430000000E+03 0. -1.
       -6    1    1    2    0  503  0.10007611264E+03  0.16273642961E+03 -0.10003964502E+04  0.10332821113E+04  0.17430000000E+03 0.  1.
</event>
<event>
 4 661  0.7533903E-01  0.9118800E+02  0.7818608E-02  0.1300000E+00
       21   -1    0    0  501  502  0.00000000000E+00  0.00000000000E+00  0.50498997306E+03  0.50498997306E+03  0.00000000000E+00 0.  1.
       21   -1    0    0  502  503  0.00000000000E+00  0.00000000000E+00 -0.79756201426E+02  0.79756201426E+02  0.00000000000E+00 0.  1.
        6    1    1    2  501    0  0.77276907973E+02 -0.33180403027E+01  0.30374682013E+03  0.35864376564E+03  0.17430000000E+03 0.  1.
       -6    1    1    2    0  503 -0.77276907973E+02  0.33180403027E+01  0.12148695150E+03  0.22610240884E+03  0.17430000000E+03 0.  1.
</event>
<event>
 4 661  0.7533903E-01  0.9118800E+02  0.7818608E-02  0.1300000E+00
       21   -1    0    0  502  503  0.00000000000E+00  0.00000000000E+00  0.64159125033E+02  0.64159125033E+02  0.00000000000E+00 0. -1.
       21   -1    0    0  501  502  0.00000000000E+00  0.00000000000E+00 -0.78169324132E+03  0.78169324132E+03  0.00000000000E+00 0.  1.
        6    1    1    2  501    0  0.13638951978E+03  0.30781197435E+02 -0.33058589330E+03  0.39902018253E+03  0.17430000000E+03 0.  1.
       -6    1    1    2    0  503 -0.13638951978E+03 -0.30781197435E+02 -0.38694822299E+03  0.44683218382E+03  0.17430000000E+03 0. -1.
</event>
<event>
 4 661  0.7533903E-01  0.9118800E+02  0.7818608E-02  0.1300000E+00
       21   -1    0    0  502  503  0.00000000000E+00  0.00000000000E+00  0.26521965459E+02  0.26521965459E+02  0.00000000000E+00 0.  1.
       21   -1    0    0  501  502  0.00000000000E+00  0.00000000000E+00 -0.18734943002E+04  0.18734943002E+04  0.00000000000E+00 0.  1.
        6    1    1    2  501    0 -0.74749250243E+02  0.78476118289E+01 -0.14215801821E+04  0.14341965484E+04  0.17430000000E+03 0.  1.
       -6    1    1    2    0  503  0.74749250243E+02 -0.78476118289E+01 -0.42539215268E+03  0.46581971726E+03  0.17430000000E+03 0.  1.
</event>
<event>
 4 661  0.7533903E-01  0.9118800E+02  0.7818608E-02  0.1300000E+00
       21   -1    0    0  502  503  0.00000000000E+00  0.00000000000E+00  0.24317275957E+03  0.24317275957E+03  0.00000000000E+00 0.  1.
       21   -1    0    0  501  502  0.00000000000E+00  0.00000000000E+00 -0.29294791778E+03  0.29294791778E+03  0.00000000000E+00 0.  1.
        6    1    1    2  501    0  0.16919444730E+03  0.90054502907E+02 -0.89352381347E+02  0.27404545707E+03  0.17430000000E+03 0.  1.
       -6    1    1    2    0  503 -0.16919444730E+03 -0.90054502907E+02  0.39577223138E+02  0.26207522027E+03  0.17430000000E+03 0.  1.
</event>
<event>
 4 661  0.7533903E-01  0.9118800E+02  0.7818608E-02  0.1300000E+00
       21   -1    0    0  501  502  0.00000000000E+00  0.00000000000E+00  0.31473943318E+03  0.31473943318E+03  0.00000000000E+00 0. -1.
       21   -1    0    0  502  503  0.00000000000E+00  0.00000000000E+00 -0.18051724172E+03  0.18051724172E+03  0.00000000000E+00 0.  1.
        6    1    1    2  501    0  0.84584992147E+02  0.95356369059E+01  0.21102450632E+03  0.28663108962E+03  0.17430000000E+03 0.  1.
       -6    1    1    2    0  503 -0.84584992147E+02 -0.95356369059E+01 -0.76802314857E+02  0.20862558528E+03  0.17430000000E+03 0.  1.
</event>
<event>
 4 661  0.7533903E-01  0.9118800E+02  0.7818608E-02  0.1300000E+00
       21   -1    0    0  501  502  0.00000000000E+00  0.00000000000E+00  0.85510934792E+03  0.85510934792E+03  0.00000000000E+00 0.  1.
       21   -1    0    0  502  503  0.00000000000E+00  0.00000000000E+00 -0.97771217939E+02  0.97771217939E+02  0.00000000000E+00 0.  1.
        6    1    1    2  501    0  0.68082704928E+02  0.19148234224E+03  0.55859774422E+03  0.61944545518E+03  0.17430000000E+03 0.  1.
       -6    1    1    2    0  503 -0.68082704928E+02 -0.19148234224E+03  0.19874038576E+03  0.33343511068E+03  0.17430000000E+03 0.  1.
</event>
<event>
 4 661  0.7533903E-01  0.9118800E+02  0.7818608E-02  0.1300000E+00
       21   -1    0    0  502  503  0.00000000000E+00  0.00000000000E+00  0.19010706204E+04  0.19010706204E+04  0.00000000000E+00 0. -1.
       21   -1    0    0  501  502  0.00000000000E+00  0.00000000000E+00 -0.29289129885E+02  0.29289129885E+02  0.00000000000E+00 0.  1.
        6    1    1    2  501    0  0.73659241156E+02 -0.60144964472E+02  0.41436275694E+03  0.45947805704E+03  0.17430000000E+03 0.  1.
       -6    1    1    2    0  503 -0.73659241156E+02  0.60144964472E+02  0.14574187336E+04  0.14708816933E+04  0.17430000000E+03 0. -1.
</event>
<event>
 4 661  0.7533903E-01  0.9118800E+02  0.7818608E-02  0.1300000E+00
       21   -1    0    0  502  503  0.00000000000E+00  0.00000000000E+00  0.99574568306E+02  0.99574568306E+02  0.00000000000E+00 0. -1.
       21   -1    0    0  501  502  0.00000000000E+00  0.00000000000E+00 -0.49684759224E+03  0.49684759224E+03  0.00000000000E+00 0.  1.
        6    1    1    2  501    0 -0.79257433592E+02  0.16826116886E+02 -0.34870152599E+03  0.39816843573E+03  0.17430000000E+03 0.  1.
       -6    1    1    2    0  503  0.79257433592E+02 -0.16826116886E+02 -0.48571497947E+02  0.19825372481E+03  0.17430000000E+03 0. -1.
</event>
<event>
 4 661  0.7533903E-01  0.9118800E+02  0.7818608E-02  0.1300000E+00
       21   -1    0    0  502  503  0.00000000000E+00  0.00000000000E+00  0.28969575900E+03  0.28969575900E+03  0.00000000000E+00 0.  1.
       21   -1    0    0  501  502  0.00000000000E+00  0.00000000000E+00 -0.55419016494E+03  0.55419016494E+03  0.00000000000E+00 0.  1.
        6    1    1    2  501    0  0.11520692882E+03 -0.26325585559E+03 -0.36197315900E+03  0.49394467280E+03  0.17430000000E+03 0.  1.
       -6    1    1    2    0  503 -0.11520692882E+03  0.26325585559E+03  0.97478753063E+02  0.34994125114E+03  0.17430000000E+03 0.  1.
</event>
<event>
 4 661  0.7533903E-01  0.9118800E+02  0.7818608E-02  0.1300000E+00
       -1   -1    0    0    0  502  0.00000000000E+00  0.00000000000E+00  0.35207215280E+03  0.35207215280E+03  0.00000000000E+00 0. -1.
        1   -1    0    0  501    0  0.00000000000E+00  0.00000000000E+00 -0.20105457287E+03  0.20105457287E+03  0.00000000000E+00 0.  1.
        6    1    1    2  501    0  0.14255114958E+03 -0.62528434410E+02 -0.56693349894E+02  0.24046883640E+03  0.17430000000E+03 0.  1.
       -6    1    1    2    0  502 -0.14255114958E+03  0.62528434410E+02  0.20771092982E+03  0.31265788927E+03  0.17430000000E+03 0. -1.
</event>
<event>
 4 661  0.7533903E-01  0.9118800E+02  0.7818608E-02  0.1300000E+00
       21   -1    0    0  501  502  0.00000000000E+00  0.00000000000E+00  0.61410802148E+02  0.61410802148E+02  0.00000000000E+00 0. -1.
       21   -1    0    0  502  503  0.00000000000E+00  0.00000000000E+00 -0.84469323053E+03  0.84469323053E+03  0.00000000000E+00 0.  1.
        6    1    1    2  501    0  0.36185755048E+02  0.13867359132E+03 -0.33023273595E+03  0.39996740329E+03  0.17430000000E+03 0. -1.
       -6    1    1    2    0  503 -0.36185755048E+02 -0.13867359132E+03 -0.45304969243E+03  0.50613662939E+03  0.17430000000E+03 0.  1.
</event>
<event>
 4 661  0.7533903E-01  0.9118800E+02  0.7818608E-02  0.1300000E+00
       21   -1    0    0  502  503  0.00000000000E+00  0.00000000000E+00  0.15736788156E+03  0.15736788156E+03  0.00000000000E+00 0.  1.
       21   -1    0    0  501  502  0.00000000000E+00  0.00000000000E+00 -0.44289145699E+03  0.44289145699E+03  0.00000000000E+00 0.  1.
        6    1    1    2  501    0  0.13863300695E+02  0.11297745822E+02 -0.36726131697E+03  0.40691669308E+03  0.17430000000E+03 0.  1.
       -6    1    1    2    0  503 -0.13863300695E+02 -0.11297745822E+02  0.81737741534E+02  0.19334264547E+03  0.17430000000E+03 0.  1.
</event>
<event>
 4 661  0.7533903E-01  0.9118800E+02  0.7818608E-02  0.1300000E+00
       21   -1    0    0  501  502  0.00000000000E+00  0.00000000000E+00  0.92219329154E+03  0.92219329154E+03  0.00000000000E+00 0.  1.
       21   -1    0    0  502  503  0.00000000000E+00  0.00000000000E+00 -0.18559124565E+03  0.18559124565E+03  0.00000000000E+00 0. -1.
        6    1    1    2  501    0 -0.17742815471E+03 -0.30966592849E+03  0.52326676554E+03  0.65693404180E+03  0.17430000000E+03 0.  1.
       -6    1    1    2    0  503  0.17742815471E+03  0.30966592849E+03  0.21333528034E+03  0.45085049539E+03  0.17430000000E+03 0. -1.
</event>
<event>
 4 661  0.7533903E-01  0.9118800E+02  0.7818608E-02  0.1300000E+00
       21   -1    0    0  502  503  0.00000000000E+00  0.00000000000E+00  0.20408861676E+03  0.20408861676E+03  0.00000000000E+00 0.  1.
       21   -1    0    0  501  502  0.00000000000E+00  0.00000000000E+00 -0.88300807591E+03  0.88300807591E+03  0.00000000000E+00 0.  1.
        6    1    1    2  501    0  0.16354133324E+02  0.19937959046E+03 -0.76375756168E+03  0.80853310495E+03  0.17430000000E+03 0.  1.
       -6    1    1    2    0  503 -0.16354133324E+02 -0.19937959046E+03  0.84838102530E+02  0.27856358773E+03  0.17430000000E+03 0.  1.
</event>
<event>
 4 661  0.7533903E-01  0.9118800E+02  0.7818608E-02  0.1300000E+00
       21   -1    0    0  501  502  0.00000000000E+00  0.00000000000E+00  0.47660158942E+03  0.47660158942E+03  0.00000000000E+00 0. -1.
       21   -1    0    0  502  503  0.00000000000E+00  0.00000000000E+00 -0.78435397598E+02  0.78435397598E+02  0.00000000000E+00 0.  1.
        6    1    1    2  501    0  0.65514124064E+02  0.51604995448E+02  0.18926702028E+03  0.27047674757E+03  0.17430000000E+03 0.  1.
       -6    1    1    2    0  503 -0.65514124064E+02 -0.51604995448E+02  0.20889917154E+03  0.28456023945E+03  0.17430000000E+03 0.  1.
</event>
<event>
 4 661  0.7533903E-01  0.9118800E+02  0.7818608E-02  0.1300000E+00
       21   -1    0    0  502  503  0.00000000000E+00  0.00000000000E+00  0.16732656824E+03  0.16732656824E+03  0.00000000000E+00 0.  1.
       21   -1    0    0  501  502  0.00000000000E+00  0.00000000000E+00 -0.37038318108E+03  0.37038318108E+03  0.00000000000E+00 0. -1.
        6    1    1    2  501    0 -0.50669253657E+02 -0.93635835851E+02 -0.25524579128E+03  0.32690357445E+03  0.17430000000E+03 0. -1.
       -6    1    1    2    0  503  0.50669253657E+02  0.93635835851E+02  0.52189178432E+02  0.21080617488E+03  0.17430000000E+03 0.  1.
</event>
<event>
 4 661  0.7533903E-01  0.9118800E+02  0.7818608E-02  0.1300000E+00
       21   -1    0    0  501  502  0.00000000000E+00  0.00000000000E+00  0.36568948052E+03  0.36568948052E+03  0.00000000000E+00 0. -1.
       21   -1    0    0  502  503  0.00000000000E+00  0.00000000000E+00 -0.96583121143E+02  0.96583121143E+02  0.00000000000E+00 0. -1.
        6    1    1    2  501    0  0.69736282470E+01 -0.32458874213E+02  0.21073336145E+03  0.27548366491E+03  0.17430000000E+03 0. -1.
       -6    1    1    2    0  503 -0.69736282470E+01  0.32458874213E+02  0.58372997932E+02  0.18678893675E+03  0.17430000000E+03 0. -1.
</event>
<event>
 4 661  0.7533903E-01  0.9118800E+02  0.7818608E-02  0.1300000E+00
        2   -1    0    0  501    0  0.00000000000E+00  0.00000000000E+00  0.10646928340E+04  0.10646928340E+04  0.00000000000E+00 0.  1.
       -2   -1    0    0    0  502  0.00000000000E+00  0.00000000000E+00 -0.89844708838E+02  0.89844708838E+02  0.00000000000E+00 0. -1.
        6    1    1    2  501    0 -0.20219953299E+03  0.70780554871E+02  0.74727173061E+03  0.79667437982E+03  0.17430000000E+03 0.  1.
       -6    1    1    2    0  502  0.20219953299E+03 -0.70780554871E+02  0.22757639456E+03  0.35786316303E+03  0.17430000000E+03 0. -1.
</event>
<event>
 4 661  0.7533903E-01  0.9118800E+02  0.7818608E-02  0.1300000E+00
       21   -1    0    0  501  502  0.00000000000E+00  0.00000000000E+00  0.13703334214E+03  0.13703334214E+03  0.00000000000E+00 0.  1.
       21   -1    0    0  502  503  0.00000000000E+00  0.00000000000E+00 -0.65037299440E+03  0.65037299440E+03  0.00000000000E+00 0. -1.
        6    1    1    2  501    0 -0.58635645564E+02  0.18949337646E+03 -0.73001070131E+02  0.27396263412E+03  0.17430000000E+03 0.  1.
       -6    1    1    2    0  503  0.58635645564E+02 -0.18949337646E+03 -0.44033858212E+03  0.51344370242E+03  0.17430000000E+03 0.  1.
</event>
<event>
 4 661  0.7533903E-01  0.9118800E+02  0.7818608E-02  0.1300000E+00
       21   -1    0    0  502  503  0.00000000000E+00  0.00000000000E+00  0.12004218195E+03  0.12004218195E+03  0.00000000000E+00 0. -1.
       21   -1    0    0  501  502  0.00000000000E+00  0.00000000000E+00 -0.50981787662E+03  0.50981787662E+03  0.00000000000E+00 0.  1.
        6    1    1    2  501    0 -0.73747162221E+02 -0.94013007597E+02 -0.35862021445E+03  0.41625237266E+03  0.17430000000E+03 0.  1.
       -6    1    1    2    0  503  0.73747162221E+02  0.94013007597E+02 -0.31155480213E+02  0.21360768591E+03  0.17430000000E+03 0. -1.
</event>
<event>
 4 661  0.7533903E-01  0.9118800E+02  0.7818608E-02  0.1300000E+00
       21   -1    0    0  502  503  0.00000000000E+00  0.00000000000E+00  0.12319760730E+03  0.12319760730E+03  0.00000000000E+00 0. -1.
       21   -1    0    0  501  502  0.00000000000E+00  0.00000000000E+00 -0.46568419225E+03  0.46568419225E+03  0.00000000000E+00 0. -1.
        6    1    1    2  501    0  0.63196385658E+02 -0.14515428065E+03 -0.22520775704E+03  0.32582598451E+03  0.17430000000E+03 0. -1.
       -6    1    1    2    0  503 -0.63196385658E+02  0.14515428065E+03 -0.11727882791E+03  0.26305581504E+03  0.17430000000E+03 0. -1.
</event>
<event>
 4 661  0.7533903E-01  0.9118800E+02  0.7818608E-02  0.1300000E+00
       21   -1    0    0  501  502  0.00000000000E+00  0.00000000000E+00  0.14230817396E+03  0.14230817396E+03  0.00000000000E+00 0. -1.
       21   -1    0    0  502  503  0.00000000000E+00  0.00000000000E+00 -0.55706071371E+03  0.55706071371E+03  0.00000000000E+00 0. -1.
        6    1    1    2  501    0 -0.49949828100E+02  0.65550119406E+00  0.60147003567E+02  0.19103289520E+03  0.17430000000E+03 0. -1.
       -6    1    1    2    0  503  0.49949828100E+02 -0.65550119406E+00 -0.47489954331E+03  0.50833599247E+03  0.17430000000E+03 0. -1.
</event>
<event>
 4 661  0.7533903E-01  0.9118800E+02  0.7818608E-02  0.1300000E+00
       21   -1    0    0  502  503  0.00000000000E+00  0.00000000000E+00  0.35311857417E+03  0.35311857417E+03  0.00000000000E+00 0. -1.
       21   -1    0    0  501  502  0.00000000000E+00  0.00000000000E+00 -0.14158822570E+03  0.14158822570E+03  0.00000000000E+00 0. -1.
        6    1    1    2  501    0 -0.59251461179E+02  0.30849747534E+01 -0.34584794065E+02  0.18734153491E+03  0.17430000000E+03 0. -1.
       -6    1    1    2    0  503  0.59251461179E+02 -0.30849747534E+01  0.24611514253E+03  0.30736526496E+03  0.17430000000E+03 0. -1.
</event>
<event>
 4 661  0.7533903E-01  0.9118800E+02  0.7818608E-02  0.1300000E+00
       21   -1    0    0  502  503  0.00000000000E+00  0.00000000000E+00  0.30847804376E+03  0.30847804376E+03  0.00000000000E+00 0. -1.
       21   -1    0    0  501  502  0.00000000000E+00  0.00000000000E+00 -0.15976783858E+03  0.15976783858E+03  0.00000000000E+00 0. -1.
        6    1    1    2  501    0 -0.10697113228E+02  0.67622813775E+02 -0.51390492421E+02  0.19418739888E+03  0.17430000000E+03 0. -1.
       -6    1    1    2    0  503  0.10697113228E+02 -0.67622813775E+02  0.20010069760E+03  0.27405848345E+03  0.17430000000E+03 0. -1.
</event>
<event>
 4 661  0.7533903E-01  0.9118800E+02  0.7818608E-02  0.1300000E+00
        2   -1    0    0  501    0  0.00000000000E+00  0.00000000000E+00  0.25019034129E+04  0.25019034129E+04  0.00000000000E+00 0.  1.
       -2   -1    0    0    0  502  0.00000000000E+00  0.00000000000E+00 -0.48404256183E+02  0.48404256183E+02  0.00000000000E+00 0. -1.
        6    1    1    2  501    0  0.57582774700E+02 -0.23840298880E+01  0.14346315538E+03  0.23298846858E+03  0.17430000000E+03 0. -1.
       -6    1    1    2    0  502 -0.57582774700E+02  0.23840298880E+01  0.23100360013E+04  0.23173192005E+04  0.17430000000E+03 0.  1.
</event>
<event>
 4 661  0.7533903E-01  0.9118800E+02  0.7818608E-02  0.1300000E+00
       21   -1    0    0  502  503  0.00000000000E+00  0.00000000000E+00  0.13708190629E+03  0.13708190629E+03  0.00000000000E+00 0. -1.
       21   -1    0    0  501  502  0.00000000000E+00  0.00000000000E+00 -0.53027630751E+03  0.53027630751E+03  0.00000000000E+00 0.  1.
        6    1    1    2  501    0 -0.16732786824E+03  0.87314553523E+02 -0.29781277457E+03  0.39331334257E+03  0.17430000000E+03 0.  1.
       -6    1    1    2    0  503  0.16732786824E+03 -0.87314553523E+02 -0.95381626653E+02  0.27404487123E+03  0.17430000000E+03 0. -1.
</event>
<event>
 4 661  0.7533903E-01  0.9118800E+02  0.7818608E-02  0.1300000E+00
       21   -1    0    0  502  503  0.00000000000E+00  0.00000000000E+00  0.93078820112E+02  0.93078820112E+02  0.00000000000E+00 0. -1.
       21   -1    0    0  501  502  0.00000000000E+00  0.00000000000E+00 -0.39423641846E+03  0.39423641846E+03  0.00000000000E+00 0. -1.
        6    1    1    2  501    0 -0.58355120539E+02  0.30719194301E+02 -0.20697135002E+03  0.27850784319E+03  0.17430000000E+03 0. -1.
       -6    1    1    2    0  503  0.58355120539E+02 -0.30719194301E+02 -0.94186248332E+02  0.20880739538E+03  0.17430000000E+03 0. -1.
</event>
<event>
 4 661  0.7533903E-01  0.9118800E+02  0.7818608E-02  0.1300000E+00
       21   -1    0    0  502  503  0.00000000000E+00  0.00000000000E+00  0.21983912224E+03  0.21983912224E+03  0.00000000000E+00 0.  1.
       21   -1    0    0  501  502  0.00000000000E+00  0.00000000000E+00 -0.15395284707E+03  0.15395284707E+03  0.00000000000E+00 0.  1.
        6    1    1    2  501    0  0.37975673572E+02  0.39730110293E+02  0.11543046732E+02  0.18312390716E+03  0.17430000000E+03 0.  1.
       -6    1    1    2    0  503 -0.37975673572E+02 -0.39730110293E+02  0.54343228432E+02  0.19066806215E+03  0.17430000000E+03 0.  1.
</event>
<event>
 4 661  0.7533903E-01  0.9118800E+02  0.7818608E-02  0.1300000E+00
       21   -1    0    0  501  502  0.00000000000E+00  0.00000000000E+00  0.42966312114E+03  0.42966312114E+03  0.00000000000E+00 0.  1.
       21   -1    0    0  502  503  0.00000000000E+00  0.00000000000E+00 -0.10717203877E+03  0.10717203877E+03  0.00000000000E+00 0. -1.
        6    1    1    2  501    0 -0.75671829012E+02  0.22899436434E+02  0.28262835937E+03  0.34133544998E+03  0.17430000000E+03 0.  1.
       -6    1    1    2    0  503  0.75671829012E+02 -0.22899436434E+02  0.39862722996E+02  0.19549970992E+03  0.17430000000E+03 0. -1.
</event>
<event>
 4 661  0.7533903E-01  0.9118800E+02  0.7818608E-02  0.1300000E+00
       21   -1    0    0  502  503  0.00000000000E+00  0.00000000000E+00  0.39161357088E+03  0.39161357088E+03  0.00000000000E+00 0.  1.
       21   -1    0    0  501  502  0.00000000000E+00  0.00000000000E+00 -0.12763178682E+03  0.12763178682E+03  0.00000000000E+00 0.  1.
        6    1    1    2  501    0 -0.10410212119E+03 -0.69835374777E+02  0.59584624506E+02  0.22281168884E+03  0.17430000000E+03 0.  1.
       -6    1    1    2    0  503  0.10410212119E+03  0.69835374777E+02  0.20439715955E+03  0.29643366887E+03  0.17430000000E+03 0.  1.
</event>
<event>
 4 661  0.7533903E-01  0.9118800E+02  0.7818608E-02  0.1300000E+00
       21   -1    0    0  502  503  0.00000000000E+00  0.00000000000E+00  0.18165043857E+03  0.18165043857E+03  0.00000000000E+00 0. -1.
       21   -1    0    0  501  502  0.00000000000E+00  0.00000000000E+00 -0.28394729987E+03  0.28394729987E+03  0.00000000000E+00 0. -1.
        6    1    1    2  501    0 -0.12163255751E+03 -0.72904992353E+02 -0.84975673511E+02  0.24023108051E+03  0.17430000000E+03 0. -1.
       -6    1    1    2    0  503  0.12163255751E+03  0.72904992353E+02 -0.17321187796E+02  0.22536665792E+03  0.17430000000E+03 0. -1.
</event>
<event>
 4 661  0.7533903E-01  0.9118800E+02  0.7818608E-02  0.1300000E+00
       21   -1    0    0  501  502  0.00000000000E+00  0.00000000000E+00  0.13220161798E+04  0.13220161798E+04  0.00000000000E+00 0. -1.
       21   -1    0    0  502  503  0.00000000000E+00  0.00000000000E+00 -0.36272584687E+02  0.36272584687E+02  0.00000000000E+00 0. -1.
        6    1    1    2  501    0  0.73510483714E+02 -0.52476114605E+02  0.94379993237E+03  0.96400017436E+03  0.17430000000E+03 0. -1.
       -6    1    1    2    0  503 -0.73510483714E+02  0.52476114605E+02  0.34194366277E+03  0.39428859016E+03  0.17430000000E+03 0. -1.
</event>
<event>
 4 661  0.7533903E-01  0.9118800E+02  0.7818608E-02  0.1300000E+00
       21   -1    0    0  502  503  0.00000000000E+00  0.00000000000E+00  0.81625374202E+03  0.81625374202E+03  0.00000000000E+00 0. -1.
       21   -1    0    0  501  502  0.00000000000E+00  0.00000000000E+00 -0.78530928549E+02  0.78530928549E+02  0.00000000000E+00 0. -1.
        6    1    1    2  501    0 -0.55429581166E+02  0.30569404218E+02  0.64258324391E+02  0.19625633543E+03  0.17430000000E+03 0. -1.
       -6    1    1    2    0  503  0.55429581166E+02 -0.30569404218E+02  0.67346448908E+03  0.69852833514E+03  0.17430000000E+03 0. -1.
</event>
<event>
 4 661  0.7533903E-01  0.9118800E+02  0.7818608E-02  0.1300000E+00
       21   -1    0    0  502  503  0.00000000000E+00  0.00000000000E+00  0.33647960277E+03  0.33647960277E+03  0.00000000000E+00 0.  1.
       21   -1    0    0  501  502  0.00000000000E+00  0.00000000000E+00 -0.11243144528E+03  0.11243144528E+03  0.00000000000E+00 0.  1.
        6    1    1    2  501    0 -0.72241993289E+02 -0.17825261816E+02  0.61540525466E+02  0.19925955894E+03  0.17430000000E+03 0.  1.
       -6    1    1    2    0  503  0.72241993289E+02  0.17825261816E+02  0.16250763202E+03  0.24965148912E+03  0.17430000000E+03 0.  1.
</event>
<event>
 4 661  0.7533903E-01  0.9118800E+02  0.7818608E-02  0.1300000E+00
       21   -1    0    0  501  502  0.00000000000E+00  0.00000000000E+00  0.93566094212E+02  0.93566094212E+02  0.00000000000E+00 0.  1.
       21   -1    0    0  502  503  0.00000000000E+00  0.00000000000E+00 -0.41728822955E+03  0.41728822955E+03  0.00000000000E+00 0.  1.
        6    1    1    2  501    0  0.90885245136E+01 -0.13720590823E+02 -0.43436940244E+02  0.18038324110E+03  0.17430000000E+03 0.  1.
       -6    1    1    2    0  503 -0.90885245136E+01  0.13720590823E+02 -0.28028519510E+03  0.33047108267E+03  0.17430000000E+03 0.  1.
</event>
<event>
 4 661  0.7533903E-01  0.9118800E+02  0.7818608E-02  0.1300000E+00
       21   -1    0    0  501  502  0.00000000000E+00  0.00000000000E+00  0.16139927398E+03  0.16139927398E+03  0.00000000000E+00 0. -1.
       21   -1    0    0  502  503  0.00000000000E+00  0.00000000000E+00 -0.51194363926E+03  0.51194363926E+03  0.00000000000E+00 0.  1.
        6    1    1    2  501    0 -0.17822898276E+03  0.10937310391E+03 -0.67170231825E+02  0.28039325277E+03  0.17430000000E+03 0. -1.
       -6    1    1    2    0  503  0.17822898276E+03 -0.10937310391E+03 -0.28337413345E+03  0.39294966047E+03  0.17430000000E+03 0.  1.
</event>
<event>
 4 661  0.7533903E-01  0.9118800E+02  0.7818608E-02  0.1300000E+00
       21   -1    0    0  502  503  0.00000000000E+00  0.00000000000E+00  0.15746344826E+03  0.15746344826E+03  0.00000000000E+00 0. -1.
       21   -1    0    0  501  502  0.00000000000E+00  0.00000000000E+00 -0.22374226137E+03  0.22374226137E+03  0.00000000000E+00 0. -1.
        6    1    1    2  501    0  0.49081979047E+02 -0.15288498847E+02  0.14576263398E+02  0.18230670947E+03  0.17430000000E+03 0. -1.
       -6    1    1    2    0  503 -0.49081979047E+02  0.15288498847E+02 -0.80855076509E+02  0.19889900015E+03  0.17430000000E+03 0. -1.
</event>
<event>
 4 661  0.7533903E-01  0.9118800E+02  0.7818608E-02  0.1300000E+00
       21   -1    0    0  502  503  0.00000000000E+00  0.00000000000E+00  0.22269638143E+03  0.22269638143E+03  0.00000000000E+00 0. -1.
       21   -1    0    0  501  502  0.00000000000E+00  0.00000000000E+00 -0.30542459799E+03  0.30542459799E+03  0.00000000000E+00 0.  1.
        6    1    1    2  501    0  0.15833594674E+03 -0.10829005856E+03 -0.70699593690E+02  0.26865578602E+03  0.17430000000E+03 0. -1.
       -6    1    1    2    0  503 -0.15833594674E+03  0.10829005856E+03 -0.12028622868E+02  0.25946519340E+03  0.17430000000E+03 0. -1.
</event>
<event>
 4 661  0.7533903E-01  0.9118800E+02  0.7818608E-02  0.1300000E+00
       21   -1    0    0  502  503  0.00000000000E+00  0.00000000000E+00  0.49342587564E+02  0.49342587564E+02  0.00000000000E+00 0.  1.
       21   -1    0    0  501  502  0.00000000000E+00  0.00000000000E+00 -0.88122081739E+03  0.88122081739E+03  0.00000000000E+00 0.  1.
        6    1    1    2  501    0  0.51442115520E+02  0.83455699293E+02 -0.54775882512E+03  0.58312208455E+03  0.17430000000E+03 0.  1.
       -6    1    1    2    0  503 -0.51442115520E+02 -0.83455699293E+02 -0.28411940471E+03  0.34744132041E+03  0.17430000000E+03 0.  1.
</event>
<event>
 4 661  0.7533903E-01  0.9118800E+02  0.7818608E-02  0.1300000E+00
       21   -1    0    0  502  503  0.00000000000E+00  0.00000000000E+00  0.92630019857E+02  0.92630019857E+02  0.00000000000E+00 0. -1.
       21   -1    0    0  501  502  0.00000000000E+00  0.00000000000E+00 -0.13827337014E+04  0.13827337014E+04  0.00000000000E+00 0.  1.
        6    1    1    2  501    0 -0.87924025035E+02  0.12787782095E+01 -0.12633138322E+04  0.12783092732E+04  0.17430000000E+03 0.  1.
       -6    1    1    2    0  503  0.87924025035E+02 -0.12787782095E+01 -0.26789849347E+02  0.19705444801E+03  0.17430000000E+03 0. -1.
</event>
<event>
 4 661  0.7533903E-01  0.9118800E+02  0.7818608E-02  0.1300000E+00
       21   -1    0    0  501  502  0.00000000000E+00  0.00000000000E+00  0.89340392430E+03  0.89340392430E+03  0.00000000000E+00 0. -1.
       21   -1    0    0  502  503  0.00000000000E+00  0.00000000000E+00 -0.25731238513E+03  0.25731238513E+03  0.00000000000E+00 0.  1.
        6    1    1    2  501    0 -0.23609366094E+01 -0.31848283967E+03  0.69383502873E+03  0.78308647688E+03  0.17430000000E+03 0. -1.
       -6    1    1    2    0  503  0.23609366094E+01  0.31848283967E+03 -0.57743489557E+02  0.36762983254E+03  0.17430000000E+03 0.  1.
</event>
<event>
 4 661  0.7533903E-01  0.9118800E+02  0.7818608E-02  0.1300000E+00
       21   -1    0    0  502  503  0.00000000000E+00  0.00000000000E+00  0.97166925680E+02  0.97166925680E+02  0.00000000000E+00 0.  1.
       21   -1    0    0  501  502  0.00000000000E+00  0.00000000000E+00 -0.42781971044E+03  0.42781971044E+03  0.00000000000E+00 0.  1.
        6    1    1    2  501    0 -0.27032579248E+02  0.35161091883E+02 -0.41688960590E+02  0.18462264801E+03  0.17430000000E+03 0.  1.
       -6    1    1    2    0  503  0.27032579248E+02 -0.35161091883E+02 -0.28896382417E+03  0.34036398811E+03  0.17430000000E+03 0.  1.
</event>
<event>
 4 661  0.7533903E-01  0.9118800E+02  0.7818608E-02  0.1300000E+00
       21   -1    0    0  502  503  0.00000000000E+00  0.00000000000E+00  0.15655418405E+04  0.15655418405E+04  0.00000000000E+00 0. -1.
       21   -1    0    0  501  502  0.00000000000E+00  0.00000000000E+00 -0.25965673271E+02  0.25965673271E+02  0.00000000000E+00 0.  1.
        6    1    1    2  501    0 -0.83953129242E+02  0.41417852671E+02  0.61660843256E+03  0.64757240177E+03  0.17430000000E+03 0.  1.
       -6    1    1    2    0  503  0.83953129242E+02 -0.41417852671E+02  0.92296773464E+03  0.94393511198E+03  0.17430000000E+03 0. -1.
</event>
<event>
 4 661  0.7533903E-01  0.9118800E+02  0.7818608E-02  0.1300000E+00
       21   -1    0    0  501  502  0.00000000000E+00  0.00000000000E+00  0.20743524751E+03  0.20743524751E+03  0.00000000000E+00 0. -1.
       21   -1    0    0  502  503  0.00000000000E+00  0.00000000000E+00 -0.39764057242E+03  0.39764057242E+03  0.00000000000E+00 0. -1.
        6    1    1    2  501    0 -0.10257584415E+03 -0.12333480711E+03  0.75960175811E+02  0.24876438000E+03  0.17430000000E+03 0. -1.
       -6    1    1    2    0  503  0.10257584415E+03  0.12333480711E+03 -0.26616550072E+03  0.35631143993E+03  0.17430000000E+03 0. -1.
</event>
<event>
 4 661  0.7533903E-01  0.9118800E+02  0.7818608E-02  0.1300000E+00
       21   -1    0    0  501  502  0.00000000000E+00  0.00000000000E+00  0.69506266016E+03  0.69506266016E+03  0.00000000000E+00 0.  1.
       21   -1    0    0  502  503  0.00000000000E+00  0.00000000000E+00 -0.19352796718E+03  0.19352796718E+03  0.00000000000E+00 0.  1.
        6    1    1    2  501    0 -0.26042448630E+02 -0.16784588215E+03  0.58314873930E+03  0.63189666199E+03  0.17430000000E+03 0.  1.
       -6    1    1    2    0  503  0.26042448630E+02  0.16784588215E+03 -0.81614046321E+02  0.25669396534E+03  0.17430000000E+03 0.  1.
</event>
<event>
 4 661  0.7533903E-01  0.9118800E+02  0.7818608E-02  0.1300000E+00
       21   -1    0    0  501  502  0.00000000000E+00  0.00000000000E+00  0.19658045331E+03  0.19658045331E+03  0.00000000000E+00 0. -1.
       21   -1    0    0  502  503  0.00000000000E+00  0.00000000000E+00 -0.32281005418E+03  0.32281005418E+03  0.00000000000E+00 0.  1.
        6    1    1    2  501    0 -0.12433322315E+03 -0.11325921268E+03  0.82435923729E+01  0.24235273147E+03  0.17430000000E+03 0. -1.
       -6    1    1    2    0  503  0.12433322315E+03  0.11325921268E+03 -0.13447319325E+03  0.27703777601E+03  0.17430000000E+03 0.  1.
</event>
<event>
 4 661  0.7533903E-01  0.9118800E+02  0.7818608E-02  0.1300000E+00
       21   -1    0    0  501  502  0.00000000000E+00  0.00000000000E+00  0.29441103267E+03  0.29441103267E+03  0.00000000000E+00 0. -1.
       21   -1    0    0  502  503  0.00000000000E+00  0.00000000000E+00 -0.27069298156E+03  0.27069298156E+03  0.00000000000E+00 0. -1.
        6    1    1    2  501    0  0.86964990068E+02 -0.10545904409E+03  0.18702763865E+03  0.28990403084E+03  0.17430000000E+03 0. -1.
       -6    1    1    2    0  503 -0.86964990068E+02  0.10545904409E+03 -0.16330958754E+03  0.27519998339E+03  0.17430000000E+03 0. -1.
</event>
<event>
 4 661  0.7533903E-01  0.9118800E+02  0.7818608E-02  0.1300000E+00
       21   -1    0    0  501  502  0.00000000000E+00  0.00000000000E+00  0.53085610002E+03  0.53085610002E+03  0.00000000000E+00 0. -1.
       21   -1    0    0  502  503  0.00000000000E+00  0.00000000000E+00 -0.16902103668E+03  0.16902103668E+03  0.00000000000E+00 0. -1.
        6    1    1    2  501    0 -0.18168362328E+03 -0.40434639614E+02  0.36452668572E+03  0.44486412943E+03  0.17430000000E+03 0. -1.
       -6    1    1    2    0  503  0.18168362328E+03  0.40434639614E+02 -0.26916223853E+01  0.25501300728E+03  0.17430000000E+03 0. -1.
</event>
<event>
 4 661  0.7533903E-01  0.9118800E+02  0.7818608E-02  0.1300000E+00
       21   -1    0    0  502  503  0.00000000000E+00  0.00000000000E+00  0.74522399418E+02  0.74522399418E+02  0.00000000000E+00 0. -1.
       21   -1    0    0  501  502  0.00000000000E+00  0.00000000000E+00 -0.86424033169E+03  0.86424033169E+03  0.00000000000E+00 0. -1.
        6    1    1    2  501    0 -0.13474170042E+03  0.12526177167E+03 -0.41959977680E+03  0.49019414518E+03  0.17430000000E+03 0. -1.
       -6    1    1    2    0  503  0.13474170042E+03 -0.12526177167E+03 -0.37011815547E+03  0.44856858593E+03  0.17430000000E+03 0. -1.
</event>
<event>
 4 661  0.7533903E-01  0.9118800E+02  0.7818608E-02  0.1300000E+00
       21   -1    0    0  501  502  0.00000000000E+00  0.00000000000E+00  0.21776986473E+03  0.21776986473E+03  0.00000000000E+00 0. -1.
       21   -1    0    0  502  503  0.00000000000E+00  0.00000000000E+00 -0.17439471161E+03  0.17439471161E+03  0.00000000000E+00 0. -1.
        6    1    1    2  501    0 -0.50449188852E+02 -0.40317747806E+02  0.80587674230E+02  0.20259690195E+03  0.17430000000E+03 0. -1.
       -6    1    1    2    0  503  0.50449188852E+02  0.40317747806E+02 -0.37212521113E+02  0.18956767438E+03  0.17430000000E+03 0. -1.
</event>
<event>
 4 661  0.7533903E-01  0.9118800E+02  0.7818608E-02  0.1300000E+00
       21   -1    0    0  502  503  0.00000000000E+00  0.00000000000E+00  0.39649037460E+03  0.39649037460E+03  0.00000000000E+00 0.  1.
       21   -1    0    0  501  502  0.00000000000E+00  0.00000000000E+00 -0.12470069174E+03  0.12470069174E+03  0.00000000000E+00 0.  1.
        6    1    1    2  501    0  0.50596091792E+00 -0.66578106059E+02 -0.58564426371E+01  0.18667535489E+03  0.17430000000E+03 0.  1.
       -6    1    1    2    0  503 -0.50596091792E+00  0.66578106059E+02  0.27764612549E+03  0.33451571145E+03  0.17430000000E+03 0.  1.
</event>
<event>
 4 661  0.7533903E-01  0.9118800E+02  0.7818608E-02  0.1300000E+00
       21   -1    0    0  501  502  0.00000000000E+00  0.00000000000E+00  0.92627994643E+02  0.92627994643E+02  0.00000000000E+00 0. -1.
       21   -1    0    0  502  503  0.00000000000E+00  0.00000000000E+00 -0.81125979393E+03  0.81125979393E+03  0.00000000000E+00 0. -1.
        6    1    1    2  501    0  0.19234055009E+02 -0.27679039751E+02 -0.14950071921E+02  0.17815743814E+03  0.17430000000E+03 0. -1.
       -6    1    1    2    0  503 -0.19234055009E+02  0.27679039751E+02 -0.70368172736E+03  0.72573035043E+03  0.17430000000E+03 0. -1.
</event>
<event>
 4 661  0.7533903E-01  0.9118800E+02  0.7818608E-02  0.1300000E+00
       -1   -1    0    0    0  502  0.00000000000E+00  0.00000000000E+00  0.15533552618E+02  0.15533552618E+02  0.00000000000E+00 0.  1.
        1   -1    0    0  501    0  0.00000000000E+00  0.00000000000E+00 -0.26884640632E+04  0.26884640632E+04  0.00000000000E+00 0. -1.
        6    1    1    2  501    0 -0.88370555040E+02  0.76733218982E+01 -0.17285750248E+04  0.17396035012E+04  0.17430000000E+03 0. -1.
       -6    1    1    2    0  502  0.88370555040E+02 -0.76733218982E+01 -0.94435548571E+03  0.96439411459E+03  0.17430000000E+03 0.  1.
</event>
<event>
 4 661  0.7533903E-01  0.9118800E+02  0.7818608E-02  0.1300000E+00
       -3   -1    0    0    0  502  0.00000000000E+00  0.00000000000E+00  0.11769106938E+03  0.11769106938E+03  0.00000000000E+00 0. -1.
        3   -1    0    0  501    0  0.00000000000E+00  0.00000000000E+00 -0.48487109560E+03  0.48487109560E+03  0.00000000000E+00 0.  1.
        6    1    1    2  501    0 -0.14445056965E+03 -0.74373343068E+02 -0.16221832930E+03  0.28825793587E+03  0.17430000000E+03 0.  1.
       -6    1    1    2    0  502  0.14445056965E+03  0.74373343068E+02 -0.20496169692E+03  0.31430422911E+03  0.17430000000E+03 0.  1.
</event>
<event>
 4 661  0.7533903E-01  0.9118800E+02  0.7818608E-02  0.1300000E+00
       21   -1    0    0  502  503  0.00000000000E+00  0.00000000000E+00  0.71478755040E+03  0.71478755040E+03  0.00000000000E+00 0. -1.
       21   -1    0    0  501  502  0.00000000000E+00  0.00000000000E+00 -0.24740781721E+03  0.24740781721E+03  0.00000000000E+00 0.  1.
        6    1    1    2  501    0 -0.96773012459E+02  0.60675999723E+02 -0.18418241354E+03  0.27811911898E+03  0.17430000000E+03 0.  1.
       -6    1    1    2    0  503  0.96773012459E+02 -0.60675999723E+02  0.65156214673E+03  0.68407624863E+03  0.17430000000E+03 0. -1.
</event>
<event>
 4 661  0.7533903E-01  0.9118800E+02  0.7818608E-02  0.1300000E+00
       21   -1    0    0  502  503  0.00000000000E+00  0.00000000000E+00  0.11262588748E+04  0.11262588748E+04  0.00000000000E+00 0. -1.
       21   -1    0    0  501  502  0.00000000000E+00  0.00000000000E+00 -0.16639362492E+03  0.16639362492E+03  0.00000000000E+00 0. -1.
        6    1    1    2  501    0  0.56052964199E+02 -0.78920645755E+02 -0.93765103182E+02  0.22032427850E+03  0.17430000000E+03 0. -1.
       -6    1    1    2    0  503 -0.56052964199E+02  0.78920645755E+02  0.10536303531E+04  0.10723282212E+04  0.17430000000E+03 0. -1.
</event>
<event>
 4 661  0.7533903E-01  0.9118800E+02  0.7818608E-02  0.1300000E+00
       21   -1    0    0  502  503  0.00000000000E+00  0.00000000000E+00  0.85821877528E+03  0.85821877528E+03  0.00000000000E+00 0. -1.
       21   -1    0    0  501  502  0.00000000000E+00  0.00000000000E+00 -0.43133010037E+03  0.43133010037E+03  0.00000000000E+00 0.  1.
        6    1    1    2  501    0  0.19317397892E+03  0.33503097742E+03 -0.24877385185E+03  0.49176301338E+03  0.17430000000E+03 0.  1.
       -6    1    1    2    0  503 -0.19317397892E+03 -0.33503097742E+03  0.67566252676E+03  0.79778586227E+03  0.17430000000E+03 0. -1.
</event>
<event>
 4 661  0.7533903E-01  0.9118800E+02  0.7818608E-02  0.1300000E+00
       21   -1    0    0  501  502  0.00000000000E+00  0.00000000000E+00  0.24868593748E+04  0.24868593748E+04  0.00000000000E+00 0.  1.
       21   -1    0    0  502  503  0.00000000000E+00  0.00000000000E+00 -0.20028472278E+02  0.20028472278E+02  0.00000000000E+00 0.  1.
        6    1    1    2  501    0  0.46712840593E+02  0.32281227982E+02  0.19483357274E+04  0.19569406644E+04  0.17430000000E+03 0.  1.
       -6    1    1    2    0  503 -0.46712840593E+02 -0.32281227982E+02  0.51849517513E+03  0.54994718273E+03  0.17430000000E+03 0.  1.
</event>
<event>
 4 661  0.7533903E-01  0.9118800E+02  0.7818608E-02  0.1300000E+00
       21   -1    0    0  502  503  0.00000000000E+00  0.00000000000E+00  0.37622534427E+03  0.37622534427E+03  0.00000000000E+00 0.  1.
       21   -1    0    0  501  502  0.00000000000E+00  0.00000000000E+00 -0.11817778003E+03  0.11817778003E+03  0.00000000000E+00 0.  1.
        6    1    1    2  501    0  0.11610568455E+03  0.18769867978E+02  0.14749156257E+03  0.25684059056E+03  0.17430000000E+03 0.  1.
       -6    1    1    2    0  503 -0.11610568455E+03 -0.18769867978E+02  0.11055600167E+03  0.23756253373E+03  0.17430000000E+03 0.  1.
</event>
<event>
 4 661  0.7533903E-01  0.9118800E+02  0.7818608E-02  0.1300000E+00
       21   -1    0    0  501  502  0.00000000000E+00  0.00000000000E+00  0.16019224799E+03  0.16019224799E+03  0.00000000000E+00 0.  1.
       21   -1    0    0  502  503  0.00000000000E+00  0.00000000000E+00 -0.20873836242E+03  0.20873836242E+03  0.00000000000E+00 0.  1.
        6    1    1    2  501    0  0.16673787663E+02 -0.22338040926E+02  0.23903300318E+02  0.17812596957E+03  0.17430000000E+03 0.  1.
       -6    1    1    2    0  503 -0.16673787663E+02  0.22338040926E+02 -0.72449414750E+02  0.19080464084E+03  0.17430000000E+03 0.  1.
</event>
<event>
 4 661  0.7533903E-01  0.9118800E+02  0.7818608E-02  0.1300000E+00
       21   -1    0    0  501  502  0.00000000000E+00  0.00000000000E+00  0.29058693287E+03  0.29058693287E+03  0.00000000000E+00 0. -1.
       21   -1    0    0  502  503  0.00000000000E+00  0.00000000000E+00 -0.22921514693E+03  0.22921514693E+03  0.00000000000E+00 0.  1.
        6    1    1    2  501    0 -0.43788643634E+02 -0.93283642833E+02  0.19183539573E+03  0.27892757552E+03  0.17430000000E+03 0. -1.
       -6    1    1    2    0  503  0.43788643634E+02  0.93283642833E+02 -0.13046360979E+03  0.24087450428E+03  0.17430000000E+03 0.  1.
</event>
<event>
 4 661  0.7533903E-01  0.9118800E+02  0.7818608E-02  0.1300000E+00
       21   -1    0    0  501  502  0.00000000000E+00  0.00000000000E+00  0.12167346270E+04  0.12167346270E+04  0.00000000000E+00 0. -1.
       21   -1    0    0  502  503  0.00000000000E+00  0.00000000000E+00 -0.79375866430E+02  0.79375866430E+02  0.00000000000E+00 0.  1.
        6    1    1    2  501    0  0.11730749260E+03 -0.11200981208E+03  0.98517529476E+03  0.10135374178E+04  0.17430000000E+03 0. -1.
       -6    1    1    2    0  503 -0.11730749260E+03  0.11200981208E+03  0.15218346582E+03  0.28257307566E+03  0.17430000000E+03 0.  1.
</event>
<event>
 4 661  0.7533903E-01  0.9118800E+02  0.7818608E-02  0.1300000E+00
       21   -1    0    0  501  502  0.00000000000E+00  0.00000000000E+00  0.58839413463E+03  0.58839413463E+03  0.00000000000E+00 0. -1.
       21   -1    0    0  502  503  0.00000000000E+00  0.00000000000E+00 -0.27245067782E+03  0.27245067782E+03  0.00000000000E+00 0. -1.
        6    1    1    2  501    0  0.98929737711E+02 -0.99675315925E+02  0.51484879992E+03  0.56140185107E+03  0.17430000000E+03 0. -1.
       -6    1    1    2    0  503 -0.98929737711E+02  0.99675315925E+02 -0.19890534310E+03  0.29944296138E+03  0.17430000000E+03 0. -1.
</event>
<event>
 4 661  0.7533903E-01  0.9118800E+02  0.7818608E-02  0.1300000E+00
       21   -1    0    0  502  503  0.00000000000E+00  0.00000000000E+00  0.23757547502E+03  0.23757547502E+03  0.00000000000E+00 0.  1.
       21   -1    0    0  501  502  0.00000000000E+00  0.00000000000E+00 -0.19279026536E+03  0.19279026536E+03  0.00000000000E+00 0. -1.
        6    1    1    2  501    0 -0.97301722135E+02  0.30295142871E+02 -0.48961892037E+02  0.20775749730E+03  0.17430000000E+03 0.  1.
       -6    1    1    2    0  503  0.97301722135E+02 -0.30295142871E+02  0.93747101694E+02  0.22260824308E+03  0.17430000000E+03 0.  1.
</event>
<event>
 4 661  0.7533903E-01  0.9118800E+02  0.7818608E-02  0.1300000E+00
       21   -1    0    0  501  502  0.00000000000E+00  0.00000000000E+00  0.31456166791E+02  0.31456166791E+02  0.00000000000E+00 0. -1.
       21   -1    0    0  502  503  0.00000000000E+00  0.00000000000E+00 -0.32263307472E+04  0.32263307472E+04  0.00000000000E+00 0. -1.
        6    1    1    2  501    0 -0.64215198757E+02 -0.12639644492E+02 -0.27567889925E+03  0.33266003346E+03  0.17430000000E+03 0. -1.
       -6    1    1    2    0  503  0.64215198757E+02  0.12639644492E+02 -0.29191956811E+04  0.29251268805E+04  0.17430000000E+03 0. -1.
</event>
<event>
 4 661  0.7533903E-01  0.9118800E+02  0.7818608E-02  0.1300000E+00
       21   -1    0    0  501  502  0.00000000000E+00  0.00000000000E+00  0.23251305176E+03  0.23251305176E+03  0.00000000000E+00 0.  1.
       21   -1    0    0  502  503  0.00000000000E+00  0.00000000000E+00 -0.16952557972E+03  0.16952557972E+03  0.00000000000E+00 0.  1.
        6    1    1    2  501    0  0.27423803208E+02 -0.28432668214E+02 -0.56050862808E+02  0.18730368610E+03  0.17430000000E+03 0.  1.
       -6    1    1    2    0  503 -0.27423803208E+02  0.28432668214E+02  0.11903833484E+03  0.21473494538E+03  0.17430000000E+03 0.  1.
</event>
<event>
 4 661  0.7533903E-01  0.9118800E+02  0.7818608E-02  0.1300000E+00
       21   -1    0    0  501  502  0.00000000000E+00  0.00000000000E+00  0.89969024207E+02  0.89969024207E+02  0.00000000000E+00 0.  1.
       21   -1    0    0  502  503  0.00000000000E+00  0.00000000000E+00 -0.53012045671E+03  0.53012045671E+03  0.00000000000E+00 0. -1.
        6    1    1    2  501    0 -0.10486156753E+02  0.11092500300E+03 -0.12070199938E+03  0.23950736612E+03  0.17430000000E+03 0.  1.
       -6    1    1    2    0  503  0.10486156753E+02 -0.11092500300E+03 -0.31944943313E+03  0.38058211479E+03  0.17430000000E+03 0. -1.
</event>
<event>
 4 661  0.7533903E-01  0.9118800E+02  0.7818608E-02  0.1300000E+00
       21   -1    0    0  502  503  0.00000000000E+00  0.00000000000E+00  0.69123083779E+03  0.69123083779E+03  0.00000000000E+00 0.  1.
       21   -1    0    0  501  502  0.00000000000E+00  0.00000000000E+00 -0.48488167319E+02  0.48488167319E+02  0.00000000000E+00 0.  1.
        6    1    1    2  501    0  0.84265950351E+01 -0.42328891075E+02  0.24928217209E+03  0.30722114811E+03  0.17430000000E+03 0. -1.
       -6    1    1    2    0  503 -0.84265950351E+01  0.42328891075E+02  0.39346049839E+03  0.43249785701E+03  0.17430000000E+03 0. -1.
</event>
<event>
 4 661  0.7533903E-01  0.9118800E+02  0.7818608E-02  0.1300000E+00
       21   -1    0    0  502  503  0.00000000000E+00  0.00000000000E+00  0.27614532712E+03  0.27614532712E+03  0.00000000000E+00 0. -1.
       21   -1    0    0  501  502  0.00000000000E+00  0.00000000000E+00 -0.14412882769E+03  0.14412882769E+03  0.00000000000E+00 0. -1.
        6    1    1    2  501    0 -0.74387348651E+02  0.47372542551E+02  0.23321329939E+02  0.19672826400E+03  0.17430000000E+03 0. -1.
       -6    1    1    2    0  503  0.74387348651E+02 -0.47372542551E+02  0.10869516949E+03  0.22354589081E+03  0.17430000000E+03 0. -1.
</event>
<event>
 4 661  0.7533903E-01  0.9118800E+02  0.7818608E-02  0.1300000E+00
       21   -1    0    0  501  502  0.00000000000E+00  0.00000000000E+00  0.33083243152E+03  0.33083243152E+03  0.00000000000E+00 0. -1.
       21   -1    0    0  502  503  0.00000000000E+00  0.00000000000E+00 -0.25075575799E+03  0.25075575799E+03  0.00000000000E+00 0. -1.
        6    1    1    2  501    0  0.27392406667E+02 -0.10228566020E+03  0.24537775297E+03  0.31906650071E+03  0.17430000000E+03 0. -1.
       -6    1    1    2    0  503 -0.27392406667E+02  0.10228566020E+03 -0.16530107944E+03  0.26252168880E+03  0.17430000000E+03 0. -1.
</event>
<event>
 4 661  0.7533903E-01  0.9118800E+02  0.7818608E-02  0.1300000E+00
       21   -1    0    0  501  502  0.00000000000E+00  0.00000000000E+00  0.13314097081E+04  0.13314097081E+04  0.00000000000E+00 0.  1.
       21   -1    0    0  502  503  0.00000000000E+00  0.00000000000E+00 -0.26948552722E+02  0.26948552722E+02  0.00000000000E+00 0.  1.
        6    1    1    2  501    0 -0.29986865536E+02 -0.20165201549E+01  0.40915510821E+03  0.44574843918E+03  0.17430000000E+03 0. -1.
       -6    1    1    2    0  503  0.29986865536E+02  0.20165201549E+01  0.89530604716E+03  0.91260982164E+03  0.17430000000E+03 0. -1.
</event>
<event>
 4 661  0.7533903E-01  0.9118800E+02  0.7818608E-02  0.1300000E+00
       21   -1    0    0  502  503  0.00000000000E+00  0.00000000000E+00  0.83010735759E+03  0.83010735759E+03  0.00000000000E+00 0. -1.
       21   -1    0    0  501  502  0.00000000000E+00  0.00000000000E+00 -0.70672896190E+02  0.70672896190E+02  0.00000000000E+00 0.  1.
        6    1    1    2  501    0 -0.15134551875E+03  0.19051199100E+02  0.24800520646E+03  0.33934567430E+03  0.17430000000E+03 0.  1.
       -6    1    1    2    0  503  0.15134551875E+03 -0.19051199100E+02  0.51142925494E+03  0.56143457948E+03  0.17430000000E+03 0. -1.
</event>
<event>
 4 661  0.7533903E-01  0.9118800E+02  0.7818608E-02  0.1300000E+00
       21   -1    0    0  501  502  0.00000000000E+00  0.00000000000E+00  0.36219388750E+02  0.36219388750E+02  0.00000000000E+00 0.  1.
       21   -1    0    0  502  503  0.00000000000E+00  0.00000000000E+00 -0.13262222535E+04  0.13262222535E+04  0.00000000000E+00 0. -1.
        6    1    1    2  501    0  0.36549804938E+02  0.12768974580E+03 -0.65659379304E+03  0.69219683507E+03  0.17430000000E+03 0.  1.
       -6    1    1    2    0  503 -0.36549804938E+02 -0.12768974580E+03 -0.63340907169E+03  0.67024480716E+03  0.17430000000E+03 0. -1.
</event>
<event>
 4 661  0.7533903E-01  0.9118800E+02  0.7818608E-02  0.1300000E+00
       21   -1    0    0  502  503  0.00000000000E+00  0.00000000000E+00  0.65298616295E+03  0.65298616295E+03  0.00000000000E+00 0. -1.
       21   -1    0    0  501  502  0.00000000000E+00  0.00000000000E+00 -0.14596380421E+03  0.14596380421E+03  0.00000000000E+00 0.  1.
        6    1    1    2  501    0  0.80899350458E+02 -0.14239094793E+03  0.90399617624E+00  0.23916771138E+03  0.17430000000E+03 0.  1.
       -6    1    1    2    0  503 -0.80899350458E+02  0.14239094793E+03  0.50611836257E+03  0.55978225578E+03  0.17430000000E+03 0. -1.
</event>
<event>
 4 661  0.7533903E-01  0.9118800E+02  0.7818608E-02  0.1300000E+00
       -2   -1    0    0    0  502  0.00000000000E+00  0.00000000000E+00  0.66429769949E+02  0.66429769949E+02  0.00000000000E+00 0.  1.
        2   -1    0    0  501    0  0.00000000000E+00  0.00000000000E+00 -0.12526671838E+04  0.12526671838E+04  0.00000000000E+00 0. -1.
        6    1    1    2  501    0 -0.14009661577E+03  0.17737907623E+03 -0.49765044364E+03  0.57369578392E+03  0.17430000000E+03 0.  1.
       -6    1    1    2    0  502  0.14009661577E+03 -0.17737907623E+03 -0.68858697021E+03  0.74540116983E+03  0.17430000000E+03 0. -1.
</event>
<event>
 4 661  0.7533903E-01  0.9118800E+02  0.7818608E-02  0.1300000E+00
       21   -1    0    0  502  503  0.00000000000E+00  0.00000000000E+00  0.64312543728E+03  0.64312543728E+03  0.00000000000E+00 0.  1.
       21   -1    0    0  501  502  0.00000000000E+00  0.00000000000E+00 -0.63895268380E+02  0.63895268380E+02  0.00000000000E+00 0.  1.
        6    1    1    2  501    0 -0.21873746005E+02 -0.17101021186E+02  0.11573853004E+03  0.21106113576E+03  0.17430000000E+03 0.  1.
       -6    1    1    2    0  503  0.21873746005E+02  0.17101021186E+02  0.46349163885E+03  0.49595956990E+03  0.17430000000E+03 0.  1.
</event>
<event>
 4 661  0.7533903E-01  0.9118800E+02  0.7818608E-02  0.1300000E+00
       -2   -1    0    0    0  502  0.00000000000E+00  0.00000000000E+00  0.12357333286E+04  0.12357333286E+04  0.00000000000E+00 0.  1.
        2   -1    0    0  501    0  0.00000000000E+00  0.00000000000E+00 -0.36130743209E+02  0.36130743209E+02  0.00000000000E+00 0. -1.
        6    1    1    2  501    0 -0.51368118414E+02  0.72705692971E+01  0.27599312465E+03  0.33052116365E+03  0.17430000000E+03 0. -1.
       -6    1    1    2    0  502  0.51368118414E+02 -0.72705692971E+01  0.92360946070E+03  0.94134290811E+03  0.17430000000E+03 0.  1.
</event>
<event>
 4 661  0.7533903E-01  0.9118800E+02  0.7818608E-02  0.1300000E+00
       21   -1    0    0  501  502  0.00000000000E+00  0.00000000000E+00  0.16568959507E+03  0.16568959507E+03  0.00000000000E+00 0.  1.
       21   -1    0    0  502  503  0.00000000000E+00  0.00000000000E+00 -0.21393203301E+03  0.21393203301E+03  0.00000000000E+00 0.  1.
        6    1    1    2  501    0  0.59657276394E+02 -0.17484739084E+01  0.14974277216E+02  0.18484254588E+03  0.17430000000E+03 0. -1.
       -6    1    1    2    0  503 -0.59657276394E+02  0.17484739084E+01 -0.63216715157E+02  0.19477908220E+03  0.17430000000E+03 0. -1.
</event>
<event>
 4 661  0.7533903E-01  0.9118800E+02  0.7818608E-02  0.1300000E+00
       21   -1    0    0  502  503  0.00000000000E+00  0.00000000000E+00  0.10011108209E+03  0.10011108209E+03  0.00000000000E+00 0. -1.
       21   -1    0    0  501  502  0.00000000000E+00  0.00000000000E+00 -0.57345429920E+03  0.57345429920E+03  0.00000000000E+00 0. -1.
        6    1    1    2  501    0  0.79357999930E+02 -0.34368286210E+02 -0.43320217005E+03  0.47489312628E+03  0.17430000000E+03 0. -1.
       -6    1    1    2    0  503 -0.79357999930E+02  0.34368286210E+02 -0.40141047059E+02  0.19867225501E+03  0.17430000000E+03 0. -1.
</event>
<event>
 4 661  0.7533903E-01  0.9118800E+02  0.7818608E-02  0.1300000E+00
       -2   -1    0    0    0  502  0.00000000000E+00  0.00000000000E+00  0.12867449349E+02  0.12867449349E+02  0.00000000000E+00 0.  1.
        2   -1    0    0  501    0  0.00000000000E+00  0.00000000000E+00 -0.40530022348E+04  0.40530022348E+04  0.00000000000E+00 0. -1.
        6    1    1    2  501    0  0.10201287508E+03  0.10545434167E+03 -0.18809944825E+04  0.18947421931E+04  0.17430000000E+03 0. -1.
       -6    1    1    2    0  502 -0.10201287508E+03 -0.10545434167E+03 -0.21591403029E+04  0.21711274911E+04  0.17430000000E+03 0.  1.
</event>
<event>
 4 661  0.7533903E-01  0.9118800E+02  0.7818608E-02  0.1300000E+00
        1   -1    0    0  501    0  0.00000000000E+00  0.00000000000E+00  0.12485020712E+04  0.12485020712E+04  0.00000000000E+00 0. -1.
       -1   -1    0    0    0  502  0.00000000000E+00  0.00000000000E+00 -0.27153436633E+02  0.27153436633E+02  0.00000000000E+00 0.  1.
        6    1    1    2  501    0 -0.38477264893E+02 -0.41461569632E+02  0.67274640904E+03  0.69725732878E+03  0.17430000000E+03 0. -1.
       -6    1    1    2    0  502  0.38477264893E+02  0.41461569632E+02  0.54860222550E+03  0.57839817902E+03  0.17430000000E+03 0.  1.
</event>
<event>
 4 661  0.7533903E-01  0.9118800E+02  0.7818608E-02  0.1300000E+00
       -1   -1    0    0    0  502  0.00000000000E+00  0.00000000000E+00  0.12396356860E+04  0.12396356860E+04  0.00000000000E+00 0.  1.
        1   -1    0    0  501    0  0.00000000000E+00  0.00000000000E+00 -0.38522765801E+02  0.38522765801E+02  0.00000000000E+00 0. -1.
        6    1    1    2  501    0 -0.53500259690E+02 -0.48259084421E+01  0.24854628055E+03  0.30828770776E+03  0.17430000000E+03 0. -1.
       -6    1    1    2    0  502  0.53500259690E+02  0.48259084421E+01  0.95256663965E+03  0.96987074405E+03  0.17430000000E+03 0.  1.
</event>
<event>
 4 661  0.7533903E-01  0.9118800E+02  0.7818608E-02  0.1300000E+00
        2   -1    0    0  501    0  0.00000000000E+00  0.00000000000E+00  0.28105467895E+04  0.28105467895E+04  0.00000000000E+00 0. -1.
       -2   -1    0    0    0  502  0.00000000000E+00  0.00000000000E+00 -0.14125652135E+02  0.14125652135E+02  0.00000000000E+00 0.  1.
        6    1    1    2  501    0  0.33408936227E+02 -0.82912028566E+02  0.16566889410E+04  0.16682293903E+04  0.17430000000E+03 0. -1.
       -6    1    1    2    0  502 -0.33408936227E+02  0.82912028566E+02  0.11397321964E+04  0.11564430513E+04  0.17430000000E+03 0.  1.
</event>
<event>
 4 661  0.7533903E-01  0.9118800E+02  0.7818608E-02  0.1300000E+00
       21   -1    0    0  501  502  0.00000000000E+00  0.00000000000E+00  0.10732426555E+03  0.10732426555E+03  0.00000000000E+00 0. -1.
       21   -1    0    0  502  503  0.00000000000E+00  0.00000000000E+00 -0.51300736038E+03  0.51300736038E+03  0.00000000000E+00 0.  1.
        6    1    1    2  501    0  0.11868498281E+03 -0.95143623134E+02 -0.25470156623E+03  0.34408111254E+03  0.17430000000E+03 0. -1.
       -6    1    1    2    0  503 -0.11868498281E+03  0.95143623134E+02 -0.15098152860E+03  0.27625051339E+03  0.17430000000E+03 0.  1.
</event>
<event>
 4 661  0.7533903E-01  0.9118800E+02  0.7818608E-02  0.1300000E+00
       21   -1    0    0  501  502  0.00000000000E+00  0.00000000000E+00  0.20890503163E+03  0.20890503163E+03  0.00000000000E+00 0.  1.
       21   -1    0    0  502  503  0.00000000000E+00  0.00000000000E+00 -0.20840796085E+03  0.20840796085E+03  0.00000000000E+00 0.  1.
        6    1    1    2  501    0 -0.30061510033E+02  0.62184848585E+02  0.91825518147E+02  0.20876557562E+03  0.17430000000E+03 0.  1.
       -6    1    1    2    0  503  0.30061510033E+02 -0.62184848585E+02 -0.91328447367E+02  0.20854741686E+03  0.17430000000E+03 0.  1.
</event>
<event>
 4 661  0.7533903E-01  0.9118800E+02  0.7818608E-02  0.1300000E+00
       21   -1    0    0  501  502  0.00000000000E+00  0.00000000000E+00  0.81046414611E+02  0.81046414611E+02  0.00000000000E+00 0. -1.
       21   -1    0    0  502  503  0.00000000000E+00  0.00000000000E+00 -0.61435812626E+03  0.61435812626E+03  0.00000000000E+00 0. -1.
        6    1    1    2  501    0  0.36881408342E+02  0.88382944929E+02 -0.10898047202E+03  0.22677966513E+03  0.17430000000E+03 0. -1.
       -6    1    1    2    0  503 -0.36881408342E+02 -0.88382944929E+02 -0.42433123963E+03  0.46862487574E+03  0.17430000000E+03 0. -1.
</event>
<event>
 4 661  0.7533903E-01  0.9118800E+02  0.7818608E-02  0.1300000E+00
       21   -1    0    0  502  503  0.00000000000E+00  0.00000000000E+00  0.33427031651E+03  0.33427031651E+03  0.00000000000E+00 0.  1.
       21   -1    0    0  501  502  0.00000000000E+00  0.00000000000E+00 -0.13947885761E+03  0.13947885761E+03  0.00000000000E+00 0.  1.
        6    1    1    2  501    0  0.96263743710E+02  0.47312742355E+02  0.21884678418E+02  0.20582670646E+03  0.17430000000E+03 0.  1.
       -6    1    1    2    0  503 -0.96263743710E+02 -0.47312742355E+02  0.17290678048E+03  0.26792246766E+03  0.17430000000E+03 0.  1.
</event>
<event>
 4 661  0.7533903E-01  0.9118800E+02  0.7818608E-02  0.1300000E+00
       21   -1    0    0  501  502  0.00000000000E+00  0.00000000000E+00  0.89404434833E+02  0.89404434833E+02  0.00000000000E+00 0. -1.
       21   -1    0    0  502  503  0.00000000000E+00  0.00000000000E+00 -0.66745283952E+03  0.66745283952E+03  0.00000000000E+00 0.  1.
        6    1    1    2  501    0 -0.51825433244E+02 -0.16268824600E+03 -0.27073285184E+03  0.36445865058E+03  0.17430000000E+03 0.  1.
       -6    1    1    2    0  503  0.51825433244E+02  0.16268824600E+03 -0.30731555285E+03  0.39239862377E+03  0.17430000000E+03 0.  1.
</event>
<event>
 4 661  0.7533903E-01  0.9118800E+02  0.7818608E-02  0.1300000E+00
       21   -1    0    0  502  503  0.00000000000E+00  0.00000000000E+00  0.63382143784E+03  0.63382143784E+03  0.00000000000E+00 0.  1.
       21   -1    0    0  501  502  0.00000000000E+00  0.00000000000E+00 -0.13244353289E+03  0.13244353289E+03  0.00000000000E+00 0. -1.
        6    1    1    2  501    0  0.10074362772E+03 -0.10325218016E+03  0.11364315860E+02  0.22653902293E+03  0.17430000000E+03 0. -1.
       -6    1    1    2    0  503 -0.10074362772E+03  0.10325218016E+03  0.49001358909E+03  0.53972594780E+03  0.17430000000E+03 0.  1.
</event>
<event>
 4 661  0.7533903E-01  0.9118800E+02  0.7818608E-02  0.1300000E+00
       21   -1    0    0  501  502  0.00000000000E+00  0.00000000000E+00  0.54598442722E+03  0.54598442722E+03  0.00000000000E+00 0.  1.
       21   -1    0    0  502  503  0.00000000000E+00  0.00000000000E+00 -0.22387420341E+03  0.22387420341E+03  0.00000000000E+00 0. -1.
        6    1    1    2  501    0  0.12993774225E+02 -0.17900431665E+03  0.42993448490E+03  0.49742892442E+03  0.17430000000E+03 0. -1.
       -6    1    1    2    0  503 -0.12993774225E+02  0.17900431665E+03 -0.10782426109E+03  0.27242970621E+03  0.17430000000E+03 0.  1.
</event>
<event>
 4 661  0.7533903E-01  0.9118800E+02  0.7818608E-02  0.1300000E+00
        2   -1    0    0  501    0  0.00000000000E+00  0.00000000000E+00  0.17332841704E+04  0.17332841704E+04  0.00000000000E+00 0.  1.
       -2   -1    0    0    0  502  0.00000000000E+00  0.00000000000E+00 -0.30360817017E+02  0.30360817017E+02  0.00000000000E+00 0. -1.
        6    1    1    2  501    0 -0.13736661229E+03  0.43258474672E+02  0.10004678554E+04  0.10256984457E+04  0.17430000000E+03 0.  1.
       -6    1    1    2    0  502  0.13736661229E+03 -0.43258474672E+02  0.70245549804E+03  0.73794654178E+03  0.17430000000E+03 0.  1.
</event>
<event>
 4 661  0.7533903E-01  0.9118800E+02  0.7818608E-02  0.1300000E+00
       21   -1    0    0  501  502  0.00000000000E+00  0.00000000000E+00  0.18666805647E+03  0.18666805647E+03  0.00000000000E+00 0.  1.
       21   -1    0    0  502  503  0.00000000000E+00  0.00000000000E+00 -0.32700883619E+03  0.32700883619E+03  0.00000000000E+00 0.  1.
        6    1    1    2  501    0 -0.16189280781E+03 -0.29253792897E+02 -0.13251346701E+03  0.27387109113E+03  0.17430000000E+03 0.  1.
       -6    1    1    2    0  503  0.16189280781E+03  0.29253792897E+02 -0.78273127168E+01  0.23980580152E+03  0.17430000000E+03 0.  1.
</event>
<event>
 4 661  0.7533903E-01  0.9118800E+02  0.7818608E-02  0.1300000E+00
       21   -1    0    0  502  503  0.00000000000E+00  0.00000000000E+00  0.22146453885E+03  0.22146453885E+03  0.00000000000E+00 0. -1.
       21   -1    0    0  501  502  0.00000000000E+00  0.00000000000E+00 -0.22023860379E+03  0.22023860379E+03  0.00000000000E+00 0. -1.
        6    1    1    2  501    0  0.10209663272E+03  0.89239747172E+02 -0.20508628160E+01  0.22084417793E+03  0.17430000000E+03 0. -1.
       -6    1    1    2    0  503 -0.10209663272E+03 -0.89239747172E+02  0.32767978714E+01  0.22085896471E+03  0.17430000000E+03 0. -1.
</event>
<event>
 4 661  0.7533903E-01  0.9118800E+02  0.7818608E-02  0.1300000E+00
       21   -1    0    0  502  503  0.00000000000E+00  0.00000000000E+00  0.44052928447E+03  0.44052928447E+03  0.00000000000E+00 0.  1.
       21   -1    0    0  501  502  0.00000000000E+00  0.00000000000E+00 -0.23087114969E+03  0.23087114969E+03  0.00000000000E+00 0. -1.
        6    1    1    2  501    0 -0.15251739169E+03  0.96105409450E+01 -0.12572310240E+03  0.26370571807E+03  0.17430000000E+03 0. -1.
       -6    1    1    2    0  503  0.15251739169E+03 -0.96105409450E+01  0.33538123719E+03  0.40769471608E+03  0.17430000000E+03 0.  1.
</event>
<event>
 4 661  0.7533903E-01  0.9118800E+02  0.7818608E-02  0.1300000E+00
       21   -1    0    0  501  502  0.00000000000E+00  0.00000000000E+00  0.59004959902E+03  0.59004959902E+03  0.00000000000E+00 0. -1.
       21   -1    0    0  502  503  0.00000000000E+00  0.00000000000E+00 -0.60245592060E+02  0.60245592060E+02  0.00000000000E+00 0. -1.
        6    1    1    2  501    0 -0.17225372104E+02 -0.42925142702E+02  0.17000338043E+03  0.24783244476E+03  0.17430000000E+03 0. -1.
       -6    1    1    2    0  503  0.17225372104E+02  0.42925142702E+02  0.35980062653E+03  0.40246274631E+03  0.17430000000E+03 0. -1.
</event>
<event>
 4 661  0.7533903E-01  0.9118800E+02  0.7818608E-02  0.1300000E+00
       -1   -1    0    0    0  502  0.00000000000E+00  0.00000000000E+00  0.53844360460E+02  0.53844360460E+02  0.00000000000E+00 0.  1.
        1   -1    0    0  501    0  0.00000000000E+00  0.00000000000E+00 -0.64310420899E+03  0.64310420899E+03  0.00000000000E+00 0. -1.
        6    1    1    2  501    0  0.51188614376E+02  0.69282213308E+01 -0.22022195900E+03  0.28556343554E+03  0.17430000000E+03 0.  1.
       -6    1    1    2    0  502 -0.51188614376E+02 -0.69282213308E+01 -0.36903788954E+03  0.41138513392E+03  0.17430000000E+03 0. -1.
</event>
<event>
 4 661  0.7533903E-01  0.9118800E+02  0.7818608E-02  0.1300000E+00
       21   -1    0    0  501  502  0.00000000000E+00  0.00000000000E+00  0.14303186980E+03  0.14303186980E+03  0.00000000000E+00 0. -1.
       21   -1    0    0  502  503  0.00000000000E+00  0.00000000000E+00 -0.39077115538E+03  0.39077115538E+03  0.00000000000E+00 0.  1.
        6    1    1    2  501    0  0.15152737872E+03  0.41206019073E+02 -0.90882827360E+02  0.25159225111E+03  0.17430000000E+03 0. -1.
       -6    1    1    2    0  503 -0.15152737872E+03 -0.41206019073E+02 -0.15685645822E+03  0.28221077406E+03  0.17430000000E+03 0.  1.
</event>
<event>
 4 661  0.7533903E-01  0.9118800E+02  0.7818608E-02  0.1300000E+00
       21   -1    0    0  501  502  0.00000000000E+00  0.00000000000E+00  0.20325526738E+03  0.20325526738E+03  0.00000000000E+00 0.  1.
       21   -1    0    0  502  503  0.00000000000E+00  0.00000000000E+00 -0.36807998612E+03  0.36807998612E+03  0.00000000000E+00 0.  1.
        6    1    1    2  501    0  0.61818379097E+02  0.15986410379E+03 -0.21056246044E+03  0.32263769684E+03  0.17430000000E+03 0.  1.
       -6    1    1    2    0  503 -0.61818379097E+02 -0.15986410379E+03  0.45737741705E+02  0.24869755666E+03  0.17430000000E+03 0.  1.
</event>
<event>
 4 661  0.7533903E-01  0.9118800E+02  0.7818608E-02  0.1300000E+00
       21   -1    0    0  501  502  0.00000000000E+00  0.00000000000E+00  0.22449311602E+03  0.22449311602E+03  0.00000000000E+00 0. -1.
       21   -1    0    0  502  503  0.00000000000E+00  0.00000000000E+00 -0.87618578772E+03  0.87618578772E+03  0.00000000000E+00 0.  1.
        6    1    1    2  501    0 -0.25332427359E+01  0.14874871072E+03  0.14533757909E+03  0.27135972095E+03  0.17430000000E+03 0. -1.
       -6    1    1    2    0  503  0.25332427359E+01 -0.14874871072E+03 -0.79703025080E+03  0.82931918279E+03  0.17430000000E+03 0.  1.
</event>
<event>
 4 661  0.7533903E-01  0.9118800E+02  0.7818608E-02  0.1300000E+00
       21   -1    0    0  502  503  0.00000000000E+00  0.00000000000E+00  0.38844518089E+03  0.38844518089E+03  0.00000000000E+00 0.  1.
       21   -1    0    0  501  502  0.00000000000E+00  0.00000000000E+00 -0.11317103171E+03  0.11317103171E+03  0.00000000000E+00 0.  1.
        6    1    1    2  501    0 -0.61275856266E+02 -0.43947116242E+02  0.31354427348E+02  0.19248290756E+03  0.17430000000E+03 0.  1.
       -6    1    1    2    0  503  0.61275856266E+02  0.43947116242E+02  0.24391972183E+03  0.30913330504E+03  0.17430000000E+03 0.  1.
</event>
<event>
 4 661  0.7533903E-01  0.9118800E+02  0.7818608E-02  0.1300000E+00
       21   -1    0    0  501  502  0.00000000000E+00  0.00000000000E+00  0.99802175088E+02  0.99802175088E+02  0.00000000000E+00 0. -1.
       21   -1    0    0  502  503  0.00000000000E+00  0.00000000000E+00 -0.33908783676E+03  0.33908783676E+03  0.00000000000E+00 0. -1.
        6    1    1    2  501    0  0.46145495768E+02 -0.75724495231E+01 -0.77057156432E+02  0.19622702191E+03  0.17430000000E+03 0. -1.
       -6    1    1    2    0  503 -0.46145495768E+02  0.75724495231E+01 -0.16222850524E+03  0.24266298993E+03  0.17430000000E+03 0. -1.
</event>
<event>
 4 661  0.7533903E-01  0.9118800E+02  0.7818608E-02  0.1300000E+00
       21   -1    0    0  501  502  0.00000000000E+00  0.00000000000E+00  0.22156038449E+03  0.22156038449E+03  0.00000000000E+00 0. -1.
       21   -1    0    0  502  503  0.00000000000E+00  0.00000000000E+00 -0.18401717764E+03  0.18401717764E+03  0.00000000000E+00 0. -1.
        6    1    1    2  501    0 -0.26367013469E+02 -0.55298960135E+02 -0.63048908798E+02  0.19521487979E+03  0.17430000000E+03 0. -1.
       -6    1    1    2    0  503  0.26367013469E+02  0.55298960135E+02  0.10059211565E+03  0.21036268234E+03  0.17430000000E+03 0. -1.
</event>
<event>
 4 661  0.7533903E-01  0.9118800E+02  0.7818608E-02  0.1300000E+00
       21   -1    0    0  502  503  0.00000000000E+00  0.00000000000E+00  0.10661568062E+03  0.10661568062E+03  0.00000000000E+00 0. -1.
       21   -1    0    0  501  502  0.00000000000E+00  0.00000000000E+00 -0.42419039698E+03  0.42419039698E+03  0.00000000000E+00 0. -1.
        6    1    1    2  501    0  0.28195600031E+02  0.39337246183E+02 -0.29833176876E+03  0.34889073512E+03  0.17430000000E+03 0. -1.
       -6    1    1    2    0  503 -0.28195600031E+02 -0.39337246183E+02 -0.19242947592E+02  0.18191534248E+03  0.17430000000E+03 0. -1.
</event>
<event>
 4 661  0.7533903E-01  0.9118800E+02  0.7818608E-02  0.1300000E+00
       21   -1    0    0  502  503  0.00000000000E+00  0.00000000000E+00  0.18846029408E+04  0.18846029408E+04  0.00000000000E+00 0.  1.
       21   -1    0    0  501  502  0.00000000000E+00  0.00000000000E+00 -0.33936588398E+02  0.33936588398E+02  0.00000000000E+00 0.  1.
        6    1    1    2  501    0 -0.16249597606E+03 -0.61597154914E+02  0.70489595232E+03  0.74663106373E+03  0.17430000000E+03 0.  1.
       -6    1    1    2    0  503  0.16249597606E+03  0.61597154914E+02  0.11457704001E+04  0.11719084655E+04  0.17430000000E+03 0.  1.
</event>
<event>
 4 661  0.7533903E-01  0.9118800E+02  0.7818608E-02  0.1300000E+00
       21   -1    0    0  502  503  0.00000000000E+00  0.00000000000E+00  0.28589121934E+03  0.28589121934E+03  0.00000000000E+00 0. -1.
       21   -1    0    0  501  502  0.00000000000E+00  0.00000000000E+00 -0.33242541277E+03  0.33242541277E+03  0.00000000000E+00 0.  1.
        6    1    1    2  501    0  0.13013081064E+03 -0.95473557336E+02 -0.22031457410E+03  0.32398800840E+03  0.17430000000E+03 0.  1.
       -6    1    1    2    0  503 -0.13013081064E+03  0.95473557336E+02  0.17378038067E+03  0.29432862371E+03  0.17430000000E+03 0. -1.
</event>
<event>
 4 661  0.7533903E-01  0.9118800E+02  0.7818608E-02  0.1300000E+00
       21   -1    0    0  502  503  0.00000000000E+00  0.00000000000E+00  0.13119124322E+04  0.13119124322E+04  0.00000000000E+00 0.  1.
       21   -1    0    0  501  502  0.00000000000E+00  0.00000000000E+00 -0.49771711785E+02  0.49771711785E+02  0.00000000000E+00 0.  1.
        6    1    1    2  501    0 -0.11875926804E+03 -0.13679288554E+02  0.24842449317E+03  0.32616882973E+03  0.17430000000E+03 0.  1.
       -6    1    1    2    0  503  0.11875926804E+03  0.13679288554E+02  0.10137162272E+04  0.10355153142E+04  0.17430000000E+03 0.  1.
</event>
<event>
 4 661  0.7533903E-01  0.9118800E+02  0.7818608E-02  0.1300000E+00
       21   -1    0    0  502  503  0.00000000000E+00  0.00000000000E+00  0.38130641678E+02  0.38130641678E+02  0.00000000000E+00 0. -1.
       21   -1    0    0  501  502  0.00000000000E+00  0.00000000000E+00 -0.12957066838E+04  0.12957066838E+04  0.00000000000E+00 0.  1.
        6    1    1    2  501    0 -0.11461618247E+03 -0.51131980619E+02 -0.80047641541E+03  0.82879088457E+03  0.17430000000E+03 0.  1.
       -6    1    1    2    0  503  0.11461618247E+03  0.51131980619E+02 -0.45709962669E+03  0.50504644088E+03  0.17430000000E+03 0. -1.
</event>
<event>
 4 661  0.7533903E-01  0.9118800E+02  0.7818608E-02  0.1300000E+00
        2   -1    0    0  501    0  0.00000000000E+00  0.00000000000E+00  0.62023255635E+03  0.62023255635E+03  0.00000000000E+00 0.  1.
       -2   -1    0    0    0  502  0.00000000000E+00  0.00000000000E+00 -0.11436582695E+04  0.11436582695E+04  0.00000000000E+00 0. -1.
        6    1    1    2  501    0  0.24750255136E+03  0.24582332170E+03 -0.10434269568E+04  0.11139151326E+04  0.17430000000E+03 0. -1.
       -6    1    1    2    0  502 -0.24750255136E+03 -0.24582332170E+03  0.52000124366E+03  0.64997569326E+03  0.17430000000E+03 0.  1.
</event>
<event>
 4 661  0.7533903E-01  0.9118800E+02  0.7818608E-02  0.1300000E+00
       21   -1    0    0  501  502  0.00000000000E+00  0.00000000000E+00  0.43271970034E+03  0.43271970034E+03  0.00000000000E+00 0. -1.
       21   -1    0    0  502  503  0.00000000000E+00  0.00000000000E+00 -0.14107302030E+03  0.14107302030E+03  0.00000000000E+00 0. -1.
        6    1    1    2  501    0 -0.12996738488E+03  0.10144808308E+03  0.77310244526E+02  0.25207260581E+03  0.17430000000E+03 0. -1.
       -6    1    1    2    0  503  0.12996738488E+03 -0.10144808308E+03  0.21433643551E+03  0.32172011482E+03  0.17430000000E+03 0. -1.
</event>
<event>
 4 661  0.7533903E-01  0.9118800E+02  0.7818608E-02  0.1300000E+00
       21   -1    0    0  501  502  0.00000000000E+00  0.00000000000E+00  0.80338994325E+03  0.80338994325E+03  0.00000000000E+00 0.  1.
       21   -1    0    0  502  503  0.00000000000E+00  0.00000000000E+00 -0.60165518242E+02  0.60165518242E+02  0.00000000000E+00 0.  1.
        6    1    1    2  501    0 -0.44317628548E+01 -0.52317007003E+02  0.61373361765E+03  0.64016103691E+03  0.17430000000E+03 0.  1.
       -6    1    1    2    0  503  0.44317628548E+01  0.52317007003E+02  0.12949080735E+03  0.22339442458E+03  0.17430000000E+03 0.  1.
</event>
<event>
 4 661  0.7533903E-01  0.9118800E+02  0.7818608E-02  0.1300000E+00
       -2   -1    0    0    0  502  0.00000000000E+00  0.00000000000E+00  0.54221493529E+02  0.54221493529E+02  0.00000000000E+00 0. -1.
        2   -1    0    0  501    0  0.00000000000E+00  0.00000000000E+00 -0.88363217648E+03  0.88363217648E+03  0.00000000000E+00 0.  1.
        6    1    1    2  501    0 -0.87761835817E+02 -0.56696649348E+02 -0.24046881511E+03  0.31483708631E+03  0.17430000000E+03 0. -1.
       -6    1    1    2    0  502  0.87761835817E+02  0.56696649348E+02 -0.58894186784E+03  0.62301658371E+03  0.17430000000E+03 0.  1.
</event>
<event>
 4 661  0.7533903E-01  0.9118800E+02  0.7818608E-02  0.1300000E+00
       21   -1    0    0  502  503  0.00000000000E+00  0.00000000000E+00  0.30168881386E+03  0.30168881386E+03  0.00000000000E+00 0. -1.
       21   -1    0    0  501  502  0.00000000000E+00  0.00000000000E+00 -0.13878815609E+03  0.13878815609E+03  0.00000000000E+00 0. -1.
        6    1    1    2  501    0 -0.74498964182E+01  0.78688749270E+02  0.35168282905E+01  0.19141650477E+03  0.17430000000E+03 0. -1.
       -6    1    1    2    0  503  0.74498964182E+01 -0.78688749270E+02  0.15938382948E+03  0.24906046518E+03  0.17430000000E+03 0. -1.
</event>
<event>
 4 661  0.7533903E-01  0.9118800E+02  0.7818608E-02  0.1300000E+00
        3   -1    0    0  501    0  0.00000000000E+00  0.00000000000E+00  0.65456230190E+03  0.65456230190E+03  0.00000000000E+00 0.  1.
       -3   -1    0    0    0  502  0.00000000000E+00  0.00000000000E+00 -0.63711485979E+02  0.63711485979E+02  0.00000000000E+00 0. -1.
        6    1    1    2  501    0 -0.23419238623E+02  0.65947705700E+02  0.43639165668E+03  0.47509549424E+03  0.17430000000E+03 0.  1.
       -6    1    1    2    0  502  0.23419238623E+02 -0.65947705700E+02  0.15445915924E+03  0.24317829364E+03  0.17430000000E+03 0. -1.
</event>
<event>
 4 661  0.7533903E-01  0.9118800E+02  0.7818608E-02  0.1300000E+00
       21   -1    0    0  502  503  0.00000000000E+00  0.00000000000E+00  0.65602673274E+03  0.65602673274E+03  0.00000000000E+00 0.  1.
       21   -1    0    0  501  502  0.00000000000E+00  0.00000000000E+00 -0.15220756623E+03  0.15220756623E+03  0.00000000000E+00 0. -1.
        6    1    1    2  501    0 -0.91170522510E+02  0.23442369049E+03  0.15116848362E+03  0.34131939775E+03  0.17430000000E+03 0. -1.
       -6    1    1    2    0  503  0.91170522510E+02 -0.23442369049E+03  0.35265068289E+03  0.46691490122E+03  0.17430000000E+03 0.  1.
</event>
<event>
 4 661  0.7533903E-01  0.9118800E+02  0.7818608E-02  0.1300000E+00
       21   -1    0    0  502  503  0.00000000000E+00  0.00000000000E+00  0.13748880978E+04  0.13748880978E+04  0.00000000000E+00 0. -1.
       21   -1    0    0  501  502  0.00000000000E+00  0.00000000000E+00 -0.43785310637E+02  0.43785310637E+02  0.00000000000E+00 0. -1.
        6    1    1    2  501    0  0.96535552839E+00  0.53151247786E+02  0.19056240856E+03  0.26366742046E+03  0.17430000000E+03 0. -1.
       -6    1    1    2    0  503 -0.96535552839E+00 -0.53151247786E+02  0.11405403786E+04  0.11550059880E+04  0.17430000000E+03 0. -1.
</event>
<event>
 4 661  0.7533903E-01  0.9118800E+02  0.7818608E-02  0.1300000E+00
       21   -1    0    0  502  503  0.00000000000E+00  0.00000000000E+00  0.23999490806E+03  0.23999490806E+03  0.00000000000E+00 0.  1.
       21   -1    0    0  501  502  0.00000000000E+00  0.00000000000E+00 -0.23396056942E+03  0.23396056942E+03  0.00000000000E+00 0. -1.
        6    1    1    2  501    0 -0.15712776033E+03 -0.31428284577E+02 -0.65745001037E+01  0.23685561887E+03  0.17430000000E+03 0. -1.
       -6    1    1    2    0  503  0.15712776033E+03  0.31428284577E+02  0.12608838743E+02  0.23709985861E+03  0.17430000000E+03 0. -1.
</event>
<event>
 4 661  0.7533903E-01  0.9118800E+02  0.7818608E-02  0.1300000E+00
       21   -1    0    0  501  502  0.00000000000E+00  0.00000000000E+00  0.58659561815E+03  0.58659561815E+03  0.00000000000E+00 0.  1.
       21   -1    0    0  502  503  0.00000000000E+00  0.00000000000E+00 -0.68240268979E+02  0.68240268979E+02  0.00000000000E+00 0.  1.
        6    1    1    2  501    0 -0.29239561723E+02 -0.90731099574E+01  0.41192149475E+03  0.44832698015E+03  0.17430000000E+03 0.  1.
       -6    1    1    2    0  503  0.29239561723E+02  0.90731099574E+01  0.10643385442E+03  0.20650890698E+03  0.17430000000E+03 0.  1.
</event>
<event>
 4 661  0.7533903E-01  0.9118800E+02  0.7818608E-02  0.1300000E+00
       21   -1    0    0  502  503  0.00000000000E+00  0.00000000000E+00  0.88642819017E+02  0.88642819017E+02  0.00000000000E+00 0. -1.
       21   -1    0    0  501  502  0.00000000000E+00  0.00000000000E+00 -0.84764861310E+03  0.84764861310E+03  0.00000000000E+00 0.  1.
        6    1    1    2  501    0 -0.75168852421E+02  0.19544661132E+03 -0.43095838345E+03  0.50985816902E+03  0.17430000000E+03 0.  1.
       -6    1    1    2    0  503  0.75168852421E+02 -0.19544661132E+03 -0.32804741063E+03  0.42643326310E+03  0.17430000000E+03 0.  1.
</event>
<event>
 4 661  0.7533903E-01  0.9118800E+02  0.7818608E-02  0.1300000E+00
       21   -1    0    0  502  503  0.00000000000E+00  0.00000000000E+00  0.96578979533E+02  0.96578979533E+02  0.00000000000E+00 0. -1.
       21   -1    0    0  501  502  0.00000000000E+00  0.00000000000E+00 -0.53094551181E+03  0.53094551181E+03  0.00000000000E+00 0. -1.
        6    1    1    2  501    0 -0.68645185626E+02 -0.35490312111E+02 -0.38646323354E+03  0.43093624197E+03  0.17430000000E+03 0. -1.
       -6    1    1    2    0  503  0.68645185626E+02  0.35490312111E+02 -0.47903298741E+02  0.19658824938E+03  0.17430000000E+03 0. -1.
</event>
<event>
 4 661  0.7533903E-01  0.9118800E+02  0.7818608E-02  0.1300000E+00
       21   -1    0    0  502  503  0.00000000000E+00  0.00000000000E+00  0.60819436378E+03  0.60819436378E+03  0.00000000000E+00 0.  1.
       21   -1    0    0  501  502  0.00000000000E+00  0.00000000000E+00 -0.13054299829E+03  0.13054299829E+03  0.00000000000E+00 0.  1.
        6    1    1    2  501    0 -0.82642621025E+02  0.50824202165E+02 -0.22042623270E+02  0.20069695956E+03  0.17430000000E+03 0.  1.
       -6    1    1    2    0  503  0.82642621025E+02 -0.50824202165E+02  0.49969398875E+03  0.53804040251E+03  0.17430000000E+03 0.  1.
</event>
<event>
 4 661  0.7533903E-01  0.9118800E+02  0.7818608E-02  0.1300000E+00
       21   -1    0    0  501  502  0.00000000000E+00  0.00000000000E+00  0.80863659690E+03  0.80863659690E+03  0.00000000000E+00 0. -1.
       21   -1    0    0  502  503  0.00000000000E+00  0.00000000000E+00 -0.73044093408E+02  0.73044093408E+02  0.00000000000E+00 0. -1.
        6    1    1    2  501    0 -0.82254962594E+01  0.10877092556E+03  0.60281195016E+03  0.63691562258E+03  0.17430000000E+03 0. -1.
       -6    1    1    2    0  503  0.82254962594E+01 -0.10877092556E+03  0.13278055333E+03  0.24476506773E+03  0.17430000000E+03 0. -1.
</event>
<event>
 4 661  0.7533903E-01  0.9118800E+02  0.7818608E-02  0.1300000E+00
       21   -1    0    0  502  503  0.00000000000E+00  0.00000000000E+00  0.17052270426E+03  0.17052270426E+03  0.00000000000E+00 0.  1.
       21   -1    0    0  501  502  0.00000000000E+00  0.00000000000E+00 -0.36359166091E+03  0.36359166091E+03  0.00000000000E+00 0.  1.
        6    1    1    2  501    0  0.12019941240E+03 -0.12569592041E+03 -0.13627254095E+03  0.28142149628E+03  0.17430000000E+03 0. -1.
       -6    1    1    2    0  503 -0.12019941240E+03  0.12569592041E+03 -0.56796415701E+02  0.25269286889E+03  0.17430000000E+03 0. -1.
</event>
<event>
 4 661  0.7533903E-01  0.9118800E+02  0.7818608E-02  0.1300000E+00
       21   -1    0    0  501  502  0.00000000000E+00  0.00000000000E+00  0.14283486660E+04  0.14283486660E+04  0.00000000000E+00 0.  1.
       21   -1    0    0  502  503  0.00000000000E+00  0.00000000000E+00 -0.44100976637E+02  0.44100976637E+02  0.00000000000E+00 0. -1.
        6    1    1    2  501    0  0.61366873566E+00  0.74293064049E+02  0.11749421401E+04  0.11901215730E+04  0.17430000000E+03 0.  1.
       -6    1    1    2    0  503 -0.61366873566E+00 -0.74293064049E+02  0.20930554931E+03  0.28232806967E+03  0.17430000000E+03 0. -1.
</event>
<event>
 4 661  0.7533903E-01  0.9118800E+02  0.7818608E-02  0.1300000E+00
       21   -1    0    0  502  503  0.00000000000E+00  0.00000000000E+00  0.50303921724E+03  0.50303921724E+03  0.00000000000E+00 0. -1.
       21   -1    0    0  501  502  0.00000000000E+00  0.00000000000E+00 -0.70794839026E+02  0.70794839026E+02  0.00000000000E+00 0.  1.
        6    1    1    2  501    0  0.65509461984E+02 -0.13290980174E+02  0.25814520848E+03  0.31857115127E+03  0.17430000000E+03 0. -1.
       -6    1    1    2    0  503 -0.65509461984E+02  0.13290980174E+02  0.17409916974E+03  0.25526290500E+03  0.17430000000E+03 0. -1.
</event>
<event>
 4 661  0.7533903E-01  0.9118800E+02  0.7818608E-02  0.1300000E+00
       21   -1    0    0  501  502  0.00000000000E+00  0.00000000000E+00  0.15739498934E+04  0.15739498934E+04  0.00000000000E+00 0.  1.
       21   -1    0    0  502  503  0.00000000000E+00  0.00000000000E+00 -0.77263398912E+02  0.77263398912E+02  0.00000000000E+00 0. -1.
        6    1    1    2  501    0  0.67556494732E+02  0.28156185052E+03  0.95182847839E+03  0.10100489582E+04  0.17430000000E+03 0.  1.
       -6    1    1    2    0  503 -0.67556494732E+02 -0.28156185052E+03  0.54485801605E+03  0.64116433408E+03  0.17430000000E+03 0. -1.
</event>
<event>
 4 661  0.7533903E-01  0.9118800E+02  0.7818608E-02  0.1300000E+00
       21   -1    0    0  502  503  0.00000000000E+00  0.00000000000E+00  0.23025772589E+03  0.23025772589E+03  0.00000000000E+00 0.  1.
       21   -1    0    0  501  502  0.00000000000E+00  0.00000000000E+00 -0.21251878617E+03  0.21251878617E+03  0.00000000000E+00 0.  1.
        6    1    1    2  501    0  0.26847476190E+02 -0.13041071128E+03 -0.19891432273E+02  0.22023600902E+03  0.17430000000E+03 0.  1.
       -6    1    1    2    0  503 -0.26847476190E+02  0.13041071128E+03  0.37630371994E+02  0.22254050303E+03  0.17430000000E+03 0.  1.
</event>
<event>
 4 661  0.7533903E-01  0.9118800E+02  0.7818608E-02  0.1300000E+00
       21   -1    0    0  501  502  0.00000000000E+00  0.00000000000E+00  0.25991974157E+03  0.25991974157E+03  0.00000000000E+00 0.  1.
       21   -1    0    0  502  503  0.00000000000E+00  0.00000000000E+00 -0.25081954768E+03  0.25081954768E+03  0.00000000000E+00 0.  1.
        6    1    1    2  501    0  0.10655986409E+03  0.50704514417E+02 -0.13999450705E+03  0.25279419380E+03  0.17430000000E+03 0.  1.
       -6    1    1    2    0  503 -0.10655986409E+03 -0.50704514417E+02  0.14909470094E+03  0.25794509545E+03  0.17430000000E+03 0.  1.
</event>
<event>
 4 661  0.7533903E-01  0.9118800E+02  0.7818608E-02  0.1300000E+00
       21   -1    0    0  502  503  0.00000000000E+00  0.00000000000E+00  0.43869881920E+03  0.43869881920E+03  0.00000000000E+00 0. -1.
       21   -1    0    0  501  502  0.00000000000E+00  0.00000000000E+00 -0.33188734293E+03  0.33188734293E+03  0.00000000000E+00 0. -1.
        6    1    1    2  501    0 -0.22037894084E+03  0.12663762967E+03 -0.17376297332E+03  0.35380507022E+03  0.17430000000E+03 0. -1.
       -6    1    1    2    0  503  0.22037894084E+03 -0.12663762967E+03  0.28057444959E+03  0.41678109191E+03  0.17430000000E+03 0. -1.
</event>
<event>
 4 661  0.7533903E-01  0.9118800E+02  0.7818608E-02  0.1300000E+00
       21   -1    0    0  502  503  0.00000000000E+00  0.00000000000E+00  0.21923100897E+03  0.21923100897E+03  0.00000000000E+00 0. -1.
       21   -1    0    0  501  502  0.00000000000E+00  0.00000000000E+00 -0.63957813988E+03  0.63957813988E+03  0.00000000000E+00 0. -1.
        6    1    1    2  501    0 -0.11931566064E+03 -0.41640098890E+02  0.14116038958E+03  0.25744294571E+03  0.17430000000E+03 0. -1.
       -6    1    1    2    0  503  0.11931566064E+03  0.41640098890E+02 -0.56150752049E+03  0.60136620314E+03  0.17430000000E+03 0. -1.
</event>
<event>
 4 661  0.7533903E-01  0.9118800E+02  0.7818608E-02  0.1300000E+00
       21   -1    0    0  501  502  0.00000000000E+00  0.00000000000E+00  0.89427136607E+02  0.89427136607E+02  0.00000000000E+00 0. -1.
       21   -1    0    0  502  503  0.00000000000E+00  0.00000000000E+00 -0.56849981224E+03  0.56849981224E+03  0.00000000000E+00 0. -1.
        6    1    1    2  501    0 -0.79374928292E+02 -0.50536345148E+02 -0.82369315353E+02  0.21452155028E+03  0.17430000000E+03 0. -1.
       -6    1    1    2    0  503  0.79374928292E+02  0.50536345148E+02 -0.39670336028E+03  0.44340539857E+03  0.17430000000E+03 0. -1.
</event>
<event>
 4 661  0.7533903E-01  0.9118800E+02  0.7818608E-02  0.1300000E+00
       21   -1    0    0  501  502  0.00000000000E+00  0.00000000000E+00  0.48746206219E+03  0.48746206219E+03  0.00000000000E+00 0. -1.
       21   -1    0    0  502  503  0.00000000000E+00  0.00000000000E+00 -0.89854073695E+03  0.89854073695E+03  0.00000000000E+00 0.  1.
        6    1    1    2  501    0 -0.17196028489E+03  0.68426880645E+02  0.43429179858E+03  0.50323198814E+03  0.17430000000E+03 0. -1.
       -6    1    1    2    0  503  0.17196028489E+03 -0.68426880645E+02 -0.84537047334E+03  0.88277081101E+03  0.17430000000E+03 0.  1.
</event>
<event>
 4 661  0.7533903E-01  0.9118800E+02  0.7818608E-02  0.1300000E+00
       21   -1    0    0  502  503  0.00000000000E+00  0.00000000000E+00  0.18825522217E+03  0.18825522217E+03  0.00000000000E+00 0. -1.
       21   -1    0    0  501  502  0.00000000000E+00  0.00000000000E+00 -0.20761234351E+03  0.20761234351E+03  0.00000000000E+00 0. -1.
        6    1    1    2  501    0  0.46383485758E+02  0.51188577431E+02 -0.72458680461E+02  0.20100360341E+03  0.17430000000E+03 0. -1.
       -6    1    1    2    0  503 -0.46383485758E+02 -0.51188577431E+02  0.53101559111E+02  0.19486396227E+03  0.17430000000E+03 0. -1.
</event>
<event>
 4 661  0.7533903E-01  0.9118800E+02  0.7818608E-02  0.1300000E+00
       21   -1    0    0  502  503  0.00000000000E+00  0.00000000000E+00  0.98970664443E+03  0.98970664443E+03  0.00000000000E+00 0. -1.
       21   -1    0    0  501  502  0.00000000000E+00  0.00000000000E+00 -0.42426324293E+02  0.42426324293E+02  0.00000000000E+00 0.  1.
        6    1    1    2  501    0 -0.30673653076E+01  0.10747621688E+03  0.49119349159E+03  0.53217673954E+03  0.17430000000E+03 0.  1.
       -6    1    1    2    0  503  0.30673653076E+01 -0.10747621688E+03  0.45608682854E+03  0.49995622918E+03  0.17430000000E+03 0.  1.
</event>
<event>
 4 661  0.7533903E-01  0.9118800E+02  0.7818608E-02  0.1300000E+00
       21   -1    0    0  501  502  0.00000000000E+00  0.00000000000E+00  0.44180113033E+03  0.44180113033E+03  0.00000000000E+00 0.  1.
       21   -1    0    0  502  503  0.00000000000E+00  0.00000000000E+00 -0.30149539203E+03  0.30149539203E+03  0.00000000000E+00 0. -1.
        6    1    1    2  501    0  0.27784761220E+02 -0.17592703271E+03  0.34167651784E+03  0.42290146209E+03  0.17430000000E+03 0.  1.
       -6    1    1    2    0  503 -0.27784761220E+02  0.17592703271E+03 -0.20137077954E+03  0.32039506027E+03  0.17430000000E+03 0. -1.
</event>
<event>
 4 661  0.7533903E-01  0.9118800E+02  0.7818608E-02  0.1300000E+00
       21   -1    0    0  502  503  0.00000000000E+00  0.00000000000E+00  0.50762680169E+03  0.50762680169E+03  0.00000000000E+00 0. -1.
       21   -1    0    0  501  502  0.00000000000E+00  0.00000000000E+00 -0.14915988710E+03  0.14915988710E+03  0.00000000000E+00 0. -1.
        6    1    1    2  501    0 -0.12665476668E+03  0.46686792866E+01 -0.24957214811E+02  0.21694833270E+03  0.17430000000E+03 0. -1.
       -6    1    1    2    0  503  0.12665476668E+03 -0.46686792866E+01  0.38342412940E+03  0.43983835610E+03  0.17430000000E+03 0. -1.
</event>
<event>
 4 661  0.7533903E-01  0.9118800E+02  0.7818608E-02  0.1300000E+00
       21   -1    0    0  502  503  0.00000000000E+00  0.00000000000E+00  0.32486064983E+03  0.32486064983E+03  0.00000000000E+00 0. -1.
       21   -1    0    0  501  502  0.00000000000E+00  0.00000000000E+00 -0.38315364801E+03  0.38315364801E+03  0.00000000000E+00 0.  1.
        6    1    1    2  501    0 -0.77649227304E+02 -0.81414645685E+02 -0.31548386731E+03  0.37758218651E+03  0.17430000000E+03 0.  1.
       -6    1    1    2    0  503  0.77649227304E+02  0.81414645685E+02  0.25719086914E+03  0.33043211133E+03  0.17430000000E+03 0. -1.
</event>
<event>
 4 661  0.7533903E-01  0.9118800E+02  0.7818608E-02  0.1300000E+00
       21   -1    0    0  502  503  0.00000000000E+00  0.00000000000E+00  0.29861802830E+03  0.29861802830E+03  0.00000000000E+00 0.  1.
       21   -1    0    0  501  502  0.00000000000E+00  0.00000000000E+00 -0.21174039921E+03  0.21174039921E+03  0.00000000000E+00 0.  1.
        6    1    1    2  501    0  0.14785611161E+03  0.10352031693E+03  0.60148566951E+02  0.25802369245E+03  0.17430000000E+03 0.  1.
       -6    1    1    2    0  503 -0.14785611161E+03 -0.10352031693E+03  0.26729062133E+02  0.25233473507E+03  0.17430000000E+03 0.  1.
</event>
<event>
 4 661  0.7533903E-01  0.9118800E+02  0.7818608E-02  0.1300000E+00
       21   -1    0    0  501  502  0.00000000000E+00  0.00000000000E+00  0.88008536398E+03  0.88008536398E+03  0.00000000000E+00 0. -1.
       21   -1    0    0  502  503  0.00000000000E+00  0.00000000000E+00 -0.62521834025E+02  0.62521834025E+02  0.00000000000E+00 0.  1.
        6    1    1    2  501    0  0.14809564842E+03 -0.35276093920E+02  0.48574573501E+03  0.53805774129E+03  0.17430000000E+03 0. -1.
       -6    1    1    2    0  503 -0.14809564842E+03  0.35276093920E+02  0.33181779494E+03  0.40454945671E+03  0.17430000000E+03 0. -1.
</event>
<event>
 4 661  0.7533903E-01  0.9118800E+02  0.7818608E-02  0.1300000E+00
       21   -1    0    0  501  502  0.00000000000E+00  0.00000000000E+00  0.25913695490E+03  0.25913695490E+03  0.00000000000E+00 0.  1.
       21   -1    0    0  502  503  0.00000000000E+00  0.00000000000E+00 -0.65753870343E+03  0.65753870343E+03  0.00000000000E+00 0.  1.
        6    1    1    2  501    0  0.15030685295E+03  0.55501838338E+02  0.17625463380E+03  0.29515892336E+03  0.17430000000E+03 0.  1.
       -6    1    1    2    0  503 -0.15030685295E+03 -0.55501838338E+02 -0.57465638233E+03  0.62151673497E+03  0.17430000000E+03 0.  1.
</event>
<event>
 4 661  0.7533903E-01  0.9118800E+02  0.7818608E-02  0.1300000E+00
       21   -1    0    0  502  503  0.00000000000E+00  0.00000000000E+00  0.47213598144E+03  0.47213598144E+03  0.00000000000E+00 0.  1.
       21   -1    0    0  501  502  0.00000000000E+00  0.00000000000E+00 -0.90039131299E+02  0.90039131299E+02  0.00000000000E+00 0.  1.
        6    1    1    2  501    0 -0.24071449174E+01  0.80671984833E+02  0.88878338167E+02  0.21164501525E+03  0.17430000000E+03 0.  1.
       -6    1    1    2    0  503  0.24071449174E+01 -0.80671984833E+02  0.29321851198E+03  0.35053009749E+03  0.17430000000E+03 0.  1.
</event>
<event>
 4 661  0.7533903E-01  0.9118800E+02  0.7818608E-02  0.1300000E+00
       21   -1    0    0  502  503  0.00000000000E+00  0.00000000000E+00  0.96067003192E+02  0.96067003192E+02  0.00000000000E+00 0.  1.
       21   -1    0    0  501  502  0.00000000000E+00  0.00000000000E+00 -0.35480086313E+03  0.35480086313E+03  0.00000000000E+00 0.  1.
        6    1    1    2  501    0  0.58299501702E+02  0.13606281113E+02 -0.11597949897E+03  0.21775145686E+03  0.17430000000E+03 0.  1.
       -6    1    1    2    0  503 -0.58299501702E+02 -0.13606281113E+02 -0.14275436097E+03  0.23311640946E+03  0.17430000000E+03 0.  1.
</event>
<event>
 4 661  0.7533903E-01  0.9118800E+02  0.7818608E-02  0.1300000E+00
       21   -1    0    0  502  503  0.00000000000E+00  0.00000000000E+00  0.30620770879E+03  0.30620770879E+03  0.00000000000E+00 0. -1.
       21   -1    0    0  501  502  0.00000000000E+00  0.00000000000E+00 -0.24115240620E+03  0.24115240620E+03  0.00000000000E+00 0.  1.
        6    1    1    2  501    0 -0.19525853677E+03 -0.44742542643E+02 -0.25629220372E+02  0.26676794830E+03  0.17430000000E+03 0.  1.
       -6    1    1    2    0  503  0.19525853677E+03  0.44742542643E+02  0.90684522960E+02  0.28059216669E+03  0.17430000000E+03 0. -1.
</event>
<event>
 4 661  0.7533903E-01  0.9118800E+02  0.7818608E-02  0.1300000E+00
       21   -1    0    0  501  502  0.00000000000E+00  0.00000000000E+00  0.16468678346E+03  0.16468678346E+03  0.00000000000E+00 0. -1.
       21   -1    0    0  502  503  0.00000000000E+00  0.00000000000E+00 -0.57250001279E+03  0.57250001279E+03  0.00000000000E+00 0. -1.
        6    1    1    2  501    0  0.35972171485E+02 -0.80450627546E+02  0.80508510351E+02  0.21125437471E+03  0.17430000000E+03 0. -1.
       -6    1    1    2    0  503 -0.35972171485E+02  0.80450627546E+02 -0.48832173968E+03  0.52593242155E+03  0.17430000000E+03 0. -1.
</event>
<event>
 4 661  0.7533903E-01  0.9118800E+02  0.7818608E-02  0.1300000E+00
       21   -1    0    0  502  503  0.00000000000E+00  0.00000000000E+00  0.11336794070E+04  0.11336794070E+04  0.00000000000E+00 0. -1.
       21   -1    0    0  501  502  0.00000000000E+00  0.00000000000E+00 -0.55883834241E+02  0.55883834241E+02  0.00000000000E+00 0. -1.
        6    1    1    2  501    0  0.13161262924E+03  0.61471638419E+02  0.28141186422E+03  0.36148827620E+03  0.17430000000E+03 0. -1.
       -6    1    1    2    0  503 -0.13161262924E+03 -0.61471638419E+02  0.79638370850E+03  0.82807496501E+03  0.17430000000E+03 0. -1.
</event>
<event>
 4 661  0.7533903E-01  0.9118800E+02  0.7818608E-02  0.1300000E+00
       21   -1    0    0  501  502  0.00000000000E+00  0.00000000000E+00  0.22168526463E+03  0.22168526463E+03  0.00000000000E+00 0.  1.
       21   -1    0    0  502  503  0.00000000000E+00  0.00000000000E+00 -0.26655048723E+03  0.26655048723E+03  0.00000000000E+00 0. -1.
        6    1    1    2  501    0 -0.48152698771E+02 -0.31433942457E+02  0.13762795965E+03  0.22940950376E+03  0.17430000000E+03 0.  1.
       -6    1    1    2    0  503  0.48152698771E+02  0.31433942457E+02 -0.18249318225E+03  0.25882624810E+03  0.17430000000E+03 0. -1.
</event>
<event>
 4 661  0.7533903E-01  0.9118800E+02  0.7818608E-02  0.1300000E+00
       21   -1    0    0  502  503  0.00000000000E+00  0.00000000000E+00  0.42195677130E+03  0.42195677130E+03  0.00000000000E+00 0. -1.
       21   -1    0    0  501  502  0.00000000000E+00  0.00000000000E+00 -0.19764763199E+03  0.19764763199E+03  0.00000000000E+00 0. -1.
        6    1    1    2  501    0 -0.92681019307E+01  0.10926752842E+03 -0.10504523826E+03  0.23117154358E+03  0.17430000000E+03 0. -1.
       -6    1    1    2    0  503  0.92681019307E+01 -0.10926752842E+03  0.32935437756E+03  0.38843285971E+03  0.17430000000E+03 0. -1.
</event>
<event>
 4 661  0.7533903E-01  0.9118800E+02  0.7818608E-02  0.1300000E+00
       21   -1    0    0  502  503  0.00000000000E+00  0.00000000000E+00  0.46347064988E+03  0.46347064988E+03  0.00000000000E+00 0. -1.
       21   -1    0    0  501  502  0.00000000000E+00  0.00000000000E+00 -0.22870355448E+03  0.22870355448E+03  0.00000000000E+00 0. -1.
        6    1    1    2  501    0 -0.17640373959E+03 -0.15844063233E+03 -0.30658391491E+02  0.29587521066E+03  0.17430000000E+03 0. -1.
       -6    1    1    2    0  503  0.17640373959E+03  0.15844063233E+03  0.26542548689E+03  0.39629899370E+03  0.17430000000E+03 0. -1.
</event>
<event>
 4 661  0.7533903E-01  0.9118800E+02  0.7818608E-02  0.1300000E+00
       21   -1    0    0  501  502  0.00000000000E+00  0.00000000000E+00  0.11616097124E+04  0.11616097124E+04  0.00000000000E+00 0. -1.
       21   -1    0    0  502  503  0.00000000000E+00  0.00000000000E+00 -0.34706546988E+02  0.34706546988E+02  0.00000000000E+00 0. -1.
        6    1    1    2  501    0 -0.48130825878E+02 -0.59259681926E+02  0.75436037280E+03  0.77798994103E+03  0.17430000000E+03 0. -1.
       -6    1    1    2    0  503  0.48130825878E+02  0.59259681926E+02  0.37254279264E+03  0.41832631838E+03  0.17430000000E+03 0. -1.
</event>
<event>
 4 661  0.7533903E-01  0.9118800E+02  0.7818608E-02  0.1300000E+00
       21   -1    0    0  502  503  0.00000000000E+00  0.00000000000E+00  0.53333379890E+02  0.53333379890E+02  0.00000000000E+00 0. -1.
       21   -1    0    0  501  502  0.00000000000E+00  0.00000000000E+00 -0.85572971003E+03  0.85572971003E+03  0.00000000000E+00 0. -1.
        6    1    1    2  501    0 -0.11883012996E+03 -0.30949535806E+02 -0.37265347237E+03  0.42933620162E+03  0.17430000000E+03 0. -1.
       -6    1    1    2    0  503  0.11883012996E+03  0.30949535806E+02 -0.42974285777E+03  0.47972688830E+03  0.17430000000E+03 0. -1.
</event>
<event>
 4 661  0.7533903E-01  0.9118800E+02  0.7818608E-02  0.1300000E+00
       21   -1    0    0  502  503  0.00000000000E+00  0.00000000000E+00  0.10673207287E+04  0.10673207287E+04  0.00000000000E+00 0.  1.
       21   -1    0    0  501  502  0.00000000000E+00  0.00000000000E+00 -0.30430591066E+02  0.30430591066E+02  0.00000000000E+00 0.  1.
        6    1    1    2  501    0  0.18707716659E+02  0.34312295017E+02  0.59124664937E+03  0.61764099819E+03  0.17430000000E+03 0.  1.
       -6    1    1    2    0  503 -0.18707716659E+02 -0.34312295017E+02  0.44564348824E+03  0.48011032156E+03  0.17430000000E+03 0.  1.
</event>
<event>
 4 661  0.7533903E-01  0.9118800E+02  0.7818608E-02  0.1300000E+00
       21   -1    0    0  501  502  0.00000000000E+00  0.00000000000E+00  0.19971623884E+03  0.19971623884E+03  0.00000000000E+00 0. -1.
       21   -1    0    0  502  503  0.00000000000E+00  0.00000000000E+00 -0.15476226327E+03  0.15476226327E+03  0.00000000000E+00 0. -1.
        6    1    1    2  501    0  0.57390069125E+01 -0.16208753467E+02  0.71086525647E+01  0.17529028162E+03  0.17430000000E+03 0.  1.
       -6    1    1    2    0  503 -0.57390069125E+01  0.16208753467E+02  0.37845322999E+02  0.17918822049E+03  0.17430000000E+03 0.  1.
</event>
<event>
 4 661  0.7533903E-01  0.9118800E+02  0.7818608E-02  0.1300000E+00
       -1   -1    0    0    0  502  0.00000000000E+00  0.00000000000E+00  0.54775073782E+03  0.54775073782E+03  0.00000000000E+00 0.  1.
        1   -1    0    0  501    0  0.00000000000E+00  0.00000000000E+00 -0.36363985129E+03  0.36363985129E+03  0.00000000000E+00 0. -1.
        6    1    1    2  501    0  0.25749989055E+03 -0.19571329482E+02  0.41833551913E+03  0.52160744544E+03  0.17430000000E+03 0.  1.
       -6    1    1    2    0  502 -0.25749989055E+03  0.19571329482E+02 -0.23422463260E+03  0.38978314367E+03  0.17430000000E+03 0. -1.
</event>
<event>
 4 661  0.7533903E-01  0.9118800E+02  0.7818608E-02  0.1300000E+00
       21   -1    0    0  501  502  0.00000000000E+00  0.00000000000E+00  0.15470438305E+03  0.15470438305E+03  0.00000000000E+00 0. -1.
       21   -1    0    0  502  503  0.00000000000E+00  0.00000000000E+00 -0.40206540800E+03  0.40206540800E+03  0.00000000000E+00 0. -1.
        6    1    1    2  501    0 -0.52849834822E+02  0.58444520264E+02  0.54954714103E+02  0.19902104811E+03  0.17430000000E+03 0. -1.
       -6    1    1    2    0  503  0.52849834822E+02 -0.58444520264E+02 -0.30231573906E+03  0.35774874293E+03  0.17430000000E+03 0. -1.
</event>
<event>
 4 661  0.7533903E-01  0.9118800E+02  0.7818608E-02  0.1300000E+00
       21   -1    0    0  502  503  0.00000000000E+00  0.00000000000E+00  0.43779468345E+02  0.43779468345E+02  0.00000000000E+00 0. -1.
       21   -1    0    0  501  502  0.00000000000E+00  0.00000000000E+00 -0.82067854583E+03  0.82067854583E+03  0.00000000000E+00 0.  1.
        6    1    1    2  501    0  0.72629942009E+02 -0.16361947210E+02 -0.38307333318E+03  0.42739734486E+03  0.17430000000E+03 0. -1.
       -6    1    1    2    0  503 -0.72629942009E+02  0.16361947210E+02 -0.39382574430E+03  0.43706066932E+03  0.17430000000E+03 0. -1.
</event>
<event>
 4 661  0.7533903E-01  0.9118800E+02  0.7818608E-02  0.1300000E+00
       21   -1    0    0  501  502  0.00000000000E+00  0.00000000000E+00  0.18116511733E+03  0.18116511733E+03  0.00000000000E+00 0. -1.
       21   -1    0    0  502  503  0.00000000000E+00  0.00000000000E+00 -0.54377957499E+03  0.54377957499E+03  0.00000000000E+00 0.  1.
        6    1    1    2  501    0 -0.19393899523E+02  0.10833185855E+03  0.92032937439E+02  0.22574867993E+03  0.17430000000E+03 0. -1.
       -6    1    1    2    0  503  0.19393899523E+02 -0.10833185855E+03 -0.45464739510E+03  0.49919601239E+03  0.17430000000E+03 0.  1.
</event>
<event>
 4 661  0.7533903E-01  0.9118800E+02  0.7818608E-02  0.1300000E+00
       21   -1    0    0  502  503  0.00000000000E+00  0.00000000000E+00  0.35570119139E+03  0.35570119139E+03  0.00000000000E+00 0. -1.
       21   -1    0    0  501  502  0.00000000000E+00  0.00000000000E+00 -0.19094930223E+03  0.19094930223E+03  0.00000000000E+00 0. -1.
        6    1    1    2  501    0 -0.44112658269E+02 -0.18725642180E+02 -0.11451220971E+03  0.21398624364E+03  0.17430000000E+03 0. -1.
       -6    1    1    2    0  503  0.44112658269E+02  0.18725642180E+02  0.27926409887E+03  0.33266424997E+03  0.17430000000E+03 0. -1.
</event>
<event>
 4 661  0.7533903E-01  0.9118800E+02  0.7818608E-02  0.1300000E+00
       21   -1    0    0  501  502  0.00000000000E+00  0.00000000000E+00  0.13162009273E+03  0.13162009273E+03  0.00000000000E+00 0.  1.
       21   -1    0    0  502  503  0.00000000000E+00  0.00000000000E+00 -0.42041398717E+03  0.42041398717E+03  0.00000000000E+00 0.  1.
        6    1    1    2  501    0 -0.12280350554E+03  0.68129455438E+02 -0.59522915771E+02  0.23161561082E+03  0.17430000000E+03 0.  1.
       -6    1    1    2    0  503  0.12280350554E+03 -0.68129455438E+02 -0.22927097867E+03  0.32041846909E+03  0.17430000000E+03 0.  1.
</event>
<event>
 4 661  0.7533903E-01  0.9118800E+02  0.7818608E-02  0.1300000E+00
       21   -1    0    0  502  503  0.00000000000E+00  0.00000000000E+00  0.24595053480E+03  0.24595053480E+03  0.00000000000E+00 0.  1.
       21   -1    0    0  501  502  0.00000000000E+00  0.00000000000E+00 -0.18348425041E+03  0.18348425041E+03  0.00000000000E+00 0.  1.
        6    1    1    2  501    0 -0.37093489000E+02  0.65052344636E+01  0.14792696060E+03  0.23169186579E+03  0.17430000000E+03 0.  1.
       -6    1    1    2    0  503  0.37093489000E+02 -0.65052344636E+01 -0.85460676208E+02  0.19774291942E+03  0.17430000000E+03 0.  1.
</event>
<event>
 4 661  0.7533903E-01  0.9118800E+02  0.7818608E-02  0.1300000E+00
       21   -1    0    0  502  503  0.00000000000E+00  0.00000000000E+00  0.45418091793E+03  0.45418091793E+03  0.00000000000E+00 0.  1.
       21   -1    0    0  501  502  0.00000000000E+00  0.00000000000E+00 -0.17850094776E+03  0.17850094776E+03  0.00000000000E+00 0. -1.
        6    1    1    2  501    0  0.91232244445E+02 -0.59838051573E+02 -0.80969210491E+02  0.22099868301E+03  0.17430000000E+03 0. -1.
       -6    1    1    2    0  503 -0.91232244445E+02  0.59838051573E+02  0.35664918066E+03  0.41168318268E+03  0.17430000000E+03 0.  1.
</event>
<event>
 4 661  0.7533903E-01  0.9118800E+02  0.7818608E-02  0.1300000E+00
       21   -1    0    0  502  503  0.00000000000E+00  0.00000000000E+00  0.25211569181E+03  0.25211569181E+03  0.00000000000E+00 0. -1.
       21   -1    0    0  501  502  0.00000000000E+00  0.00000000000E+00 -0.50769401012E+03  0.50769401012E+03  0.00000000000E+00 0. -1.
        6    1    1    2  501    0  0.87917621880E+02  0.64719616991E+02 -0.43864695022E+03  0.48446854800E+03  0.17430000000E+03 0. -1.
       -6    1    1    2    0  503 -0.87917621880E+02 -0.64719616991E+02  0.18306863191E+03  0.27534115394E+03  0.17430000000E+03 0. -1.
</event>
<event>
 4 661  0.7533903E-01  0.9118800E+02  0.7818608E-02  0.1300000E+00
       21   -1    0    0  501  502  0.00000000000E+00  0.00000000000E+00  0.78438187028E+03  0.78438187028E+03  0.00000000000E+00 0.  1.
       21   -1    0    0  502  503  0.00000000000E+00  0.00000000000E+00 -0.81625677111E+02  0.81625677111E+02  0.00000000000E+00 0. -1.
        6    1    1    2  501    0  0.20121033935E+00 -0.17932430003E+03  0.28536789738E+03  0.37943717784E+03  0.17430000000E+03 0.  1.
       -6    1    1    2    0  503 -0.20121033935E+00  0.17932430003E+03  0.41738829579E+03  0.48657036956E+03  0.17430000000E+03 0. -1.
</event>
<event>
 4 661  0.7533903E-01  0.9118800E+02  0.7818608E-02  0.1300000E+00
       21   -1    0    0  501  502  0.00000000000E+00  0.00000000000E+00  0.54910903894E+02  0.54910903894E+02  0.00000000000E+00 0. -1.
       21   -1    0    0  502  503  0.00000000000E+00  0.00000000000E+00 -0.99750150994E+03  0.99750150994E+03  0.00000000000E+00 0.  1.
        6    1    1    2  501    0  0.49208165112E+02  0.11345513020E+03 -0.25681685792E+03  0.33410911181E+03  0.17430000000E+03 0.  1.
       -6    1    1    2    0  503 -0.49208165112E+02 -0.11345513020E+03 -0.68577374813E+03  0.71830330203E+03  0.17430000000E+03 0.  1.
</event>
<event>
 4 661  0.7533903E-01  0.9118800E+02  0.7818608E-02  0.1300000E+00
       -1   -1    0    0    0  502  0.00000000000E+00  0.00000000000E+00  0.51970986862E+02  0.51970986862E+02  0.00000000000E+00 0. -1.
        1   -1    0    0  501    0  0.00000000000E+00  0.00000000000E+00 -0.20079640330E+04  0.20079640330E+04  0.00000000000E+00 0.  1.
        6    1    1    2  501    0  0.13475785017E+03 -0.14875502816E+03 -0.15631912576E+04  0.15856339850E+04  0.17430000000E+03 0.  1.
       -6    1    1    2    0  502 -0.13475785017E+03  0.14875502816E+03 -0.39280178855E+03  0.47430103486E+03  0.17430000000E+03 0. -1.
</event>
<event>
 4 661  0.7533903E-01  0.9118800E+02  0.7818608E-02  0.1300000E+00
       -1   -1    0    0    0  502  0.00000000000E+00  0.00000000000E+00  0.60152555338E+02  0.60152555338E+02  0.00000000000E+00 0. -1.
        1   -1    0    0  501    0  0.00000000000E+00  0.00000000000E+00 -0.13817909788E+04  0.13817909788E+04  0.00000000000E+00 0.  1.
        6    1    1    2  501    0 -0.17448574304E+03 -0.89216769005E+02 -0.36142975676E+03  0.44656115535E+03  0.17430000000E+03 0. -1.
       -6    1    1    2    0  502  0.17448574304E+03  0.89216769005E+02 -0.96020866670E+03  0.99538237879E+03  0.17430000000E+03 0.  1.
</event>
<event>
 4 661  0.7533903E-01  0.9118800E+02  0.7818608E-02  0.1300000E+00
       21   -1    0    0  501  502  0.00000000000E+00  0.00000000000E+00  0.75319946521E+03  0.75319946521E+03  0.00000000000E+00 0. -1.
       21   -1    0    0  502  503  0.00000000000E+00  0.00000000000E+00 -0.12949462360E+03  0.12949462360E+03  0.00000000000E+00 0. -1.
        6    1    1    2  501    0 -0.10068126162E+03 -0.40935993120E+02 -0.20598874952E+02  0.20643952050E+03  0.17430000000E+03 0. -1.
       -6    1    1    2    0  503  0.10068126162E+03  0.40935993120E+02  0.64430371657E+03  0.67625456831E+03  0.17430000000E+03 0. -1.
</event>
<event>
 4 661  0.7533903E-01  0.9118800E+02  0.7818608E-02  0.1300000E+00
       21   -1    0    0  501  502  0.00000000000E+00  0.00000000000E+00  0.13540918749E+04  0.13540918749E+04  0.00000000000E+00 0. -1.
       21   -1    0    0  502  503  0.00000000000E+00  0.00000000000E+00 -0.46691109011E+02  0.46691109011E+02  0.00000000000E+00 0.  1.
        6    1    1    2  501    0  0.10972449230E+03 -0.96038450023E+02  0.95345601730E+03  0.98016412657E+03  0.17430000000E+03 0.  1.
       -6    1    1    2    0  503 -0.10972449230E+03  0.96038450023E+02  0.35394474858E+03  0.42061885733E+03  0.17430000000E+03 0.  1.
</event>
<event>
 4 661  0.7533903E-01  0.9118800E+02  0.7818608E-02  0.1300000E+00
       21   -1    0    0  501  502  0.00000000000E+00  0.00000000000E+00  0.37376303503E+03  0.37376303503E+03  0.00000000000E+00 0.  1.
       21   -1    0    0  502  503  0.00000000000E+00  0.00000000000E+00 -0.17558296105E+03  0.17558296105E+03  0.00000000000E+00 0.  1.
        6    1    1    2  501    0  0.30521132030E+02 -0.10729712519E+03  0.26099508631E+03  0.33308127785E+03  0.17430000000E+03 0.  1.
       -6    1    1    2    0  503 -0.30521132030E+02  0.10729712519E+03 -0.62815012332E+02  0.21626471822E+03  0.17430000000E+03 0.  1.
</event>
<event>
 4 661  0.7533903E-01  0.9118800E+02  0.7818608E-02  0.1300000E+00
       21   -1    0    0  502  503  0.00000000000E+00  0.00000000000E+00  0.81575212184E+02  0.81575212184E+02  0.00000000000E+00 0. -1.
       21   -1    0    0  501  502  0.00000000000E+00  0.00000000000E+00 -0.45515818966E+03  0.45515818966E+03  0.00000000000E+00 0. -1.
        6    1    1    2  501    0  0.77619892519E+02 -0.15146608476E+02 -0.15580921992E+03  0.24680208767E+03  0.17430000000E+03 0. -1.
       -6    1    1    2    0  503 -0.77619892519E+02  0.15146608476E+02 -0.21777375755E+03  0.28993131418E+03  0.17430000000E+03 0. -1.
</event>
<event>
 4 661  0.7533903E-01  0.9118800E+02  0.7818608E-02  0.1300000E+00
       21   -1    0    0  501  502  0.00000000000E+00  0.00000000000E+00  0.96490650518E+03  0.96490650518E+03  0.00000000000E+00 0.  1.
       21   -1    0    0  502  503  0.00000000000E+00  0.00000000000E+00 -0.40263368224E+02  0.40263368224E+02  0.00000000000E+00 0.  1.
        6    1    1    2  501    0  0.46444328340E+02 -0.64075817502E+02  0.34253068211E+03  0.39239080546E+03  0.17430000000E+03 0.  1.
       -6    1    1    2    0  503 -0.46444328340E+02  0.64075817502E+02  0.58211245484E+03  0.61277906794E+03  0.17430000000E+03 0.  1.
</event>
<event>
 4 661  0.7533903E-01  0.9118800E+02  0.7818608E-02  0.1300000E+00
        2   -1    0    0  501    0  0.00000000000E+00  0.00000000000E+00  0.37824904183E+03  0.37824904183E+03  0.00000000000E+00 0. -1.
       -2   -1    0    0    0  502  0.00000000000E+00  0.00000000000E+00 -0.89511562161E+02  0.89511562161E+02  0.00000000000E+00 0.  1.
        6    1    1    2  501    0 -0.25071492203E+02 -0.42428456448E+02  0.10321279304E+03  0.20847571629E+03  0.17430000000E+03 0.  1.
       -6    1    1    2    0  502  0.25071492203E+02  0.42428456448E+02  0.18552468663E+03  0.25928488770E+03  0.17430000000E+03 0. -1.
</event>
<event>
 4 661  0.7533903E-01  0.9118800E+02  0.7818608E-02  0.1300000E+00
       21   -1    0    0  501  502  0.00000000000E+00  0.00000000000E+00  0.46706909513E+03  0.46706909513E+03  0.00000000000E+00 0. -1.
       21   -1    0    0  502  503  0.00000000000E+00  0.00000000000E+00 -0.11580949662E+04  0.11580949662E+04  0.00000000000E+00 0.  1.
        6    1    1    2  501    0  0.12257232518E+03 -0.37481665372E+03  0.31279634808E+03  0.53266644739E+03  0.17430000000E+03 0. -1.
       -6    1    1    2    0  503 -0.12257232518E+03  0.37481665372E+03 -0.10038222192E+04  0.10924976139E+04  0.17430000000E+03 0.  1.
</event>
<event>
 4 661  0.7533903E-01  0.9118800E+02  0.7818608E-02  0.1300000E+00
       21   -1    0    0  502  503  0.00000000000E+00  0.00000000000E+00  0.19827683563E+03  0.19827683563E+03  0.00000000000E+00 0. -1.
       21   -1    0    0  501  502  0.00000000000E+00  0.00000000000E+00 -0.30523890869E+03  0.30523890869E+03  0.00000000000E+00 0.  1.
        6    1    1    2  501    0  0.14379233150E+03  0.81548544710E+02 -0.10777602940E+03  0.26329178159E+03  0.17430000000E+03 0. -1.
       -6    1    1    2    0  503 -0.14379233150E+03 -0.81548544710E+02  0.81395633792E+00  0.24022396272E+03  0.17430000000E+03 0. -1.
</event>
<event>
 4 661  0.7533903E-01  0.9118800E+02  0.7818608E-02  0.1300000E+00
       21   -1    0    0  501  502  0.00000000000E+00  0.00000000000E+00  0.50161082059E+03  0.50161082059E+03  0.00000000000E+00 0. -1.
       21   -1    0    0  502  503  0.00000000000E+00  0.00000000000E+00 -0.34291716998E+03  0.34291716998E+03  0.00000000000E+00 0.  1.
        6    1    1    2  501    0 -0.13520916462E+03  0.89459383808E+02  0.42513266796E+03  0.48723995619E+03  0.17430000000E+03 0. -1.
       -6    1    1    2    0  503  0.13520916462E+03 -0.89459383808E+02 -0.26643901734E+03  0.35728803438E+03  0.17430000000E+03 0.  1.
</event>
<event>
 4 661  0.7533903E-01  0.9118800E+02  0.7818608E-02  0.1300000E+00
       21   -1    0    0  501  502  0.00000000000E+00  0.00000000000E+00  0.16094380308E+03  0.16094380308E+03  0.00000000000E+00 0.  1.
       21   -1    0    0  502  503  0.00000000000E+00  0.00000000000E+00 -0.85964383994E+03  0.85964383994E+03  0.00000000000E+00 0. -1.
        6    1    1    2  501    0 -0.54458824142E+02 -0.11143990915E+03  0.68099694736E+02  0.22450540150E+03  0.17430000000E+03 0.  1.
       -6    1    1    2    0  503  0.54458824142E+02  0.11143990915E+03 -0.76679973159E+03  0.79608224151E+03  0.17430000000E+03 0. -1.
</event>
<event>
 4 661  0.7533903E-01  0.9118800E+02  0.7818608E-02  0.1300000E+00
        2   -1    0    0  501    0  0.00000000000E+00  0.00000000000E+00  0.76774326063E+03  0.76774326063E+03  0.00000000000E+00 0.  1.
       -2   -1    0    0    0  502  0.00000000000E+00  0.00000000000E+00 -0.96617318461E+02  0.96617318461E+02  0.00000000000E+00 0. -1.
        6    1    1    2  501    0  0.10644772156E+03  0.17922133308E+03  0.30607183263E+03  0.40928212811E+03  0.17430000000E+03 0.  1.
       -6    1    1    2    0  502 -0.10644772156E+03 -0.17922133308E+03  0.36505410954E+03  0.45507845098E+03  0.17430000000E+03 0. -1.
</event>
<event>
 4 661  0.7533903E-01  0.9118800E+02  0.7818608E-02  0.1300000E+00
        2   -1    0    0  501    0  0.00000000000E+00  0.00000000000E+00  0.91279693867E+03  0.91279693867E+03  0.00000000000E+00 0.  1.
       -2   -1    0    0    0  502  0.00000000000E+00  0.00000000000E+00 -0.66036625493E+02  0.66036625493E+02  0.00000000000E+00 0. -1.
        6    1    1    2  501    0  0.15594168844E+03  0.43425201046E+02  0.54453664587E+03  0.59422572056E+03  0.17430000000E+03 0. -1.
       -6    1    1    2    0  502 -0.15594168844E+03 -0.43425201046E+02  0.30222366731E+03  0.38460784360E+03  0.17430000000E+03 0. -1.
</event>
<event>
 4 661  0.7533903E-01  0.9118800E+02  0.7818608E-02  0.1300000E+00
       21   -1    0    0  501  502  0.00000000000E+00  0.00000000000E+00  0.12510914292E+03  0.12510914292E+03  0.00000000000E+00 0. -1.
       21   -1    0    0  502  503  0.00000000000E+00  0.00000000000E+00 -0.84098667327E+03  0.84098667327E+03  0.00000000000E+00 0.  1.
        6    1    1    2  501    0  0.60056504709E+02 -0.23738336717E+03 -0.53957755043E+03  0.61764234772E+03  0.17430000000E+03 0.  1.
       -6    1    1    2    0  503 -0.60056504709E+02  0.23738336717E+03 -0.17629997992E+03  0.34845346847E+03  0.17430000000E+03 0. -1.
</event>
<event>
 4 661  0.7533903E-01  0.9118800E+02  0.7818608E-02  0.1300000E+00
       21   -1    0    0  501  502  0.00000000000E+00  0.00000000000E+00  0.46791846960E+03  0.46791846960E+03  0.00000000000E+00 0. -1.
       21   -1    0    0  502  503  0.00000000000E+00  0.00000000000E+00 -0.30868966535E+03  0.30868966535E+03  0.00000000000E+00 0.  1.
        6    1    1    2  501    0  0.23166132605E+03 -0.48545216176E+02  0.32575323726E+03  0.43877017855E+03  0.17430000000E+03 0. -1.
       -6    1    1    2    0  503 -0.23166132605E+03  0.48545216176E+02 -0.16652443301E+03  0.33783795640E+03  0.17430000000E+03 0.  1.
</event>
<event>
 4 661  0.7533903E-01  0.9118800E+02  0.7818608E-02  0.1300000E+00
       21   -1    0    0  501  502  0.00000000000E+00  0.00000000000E+00  0.44029403006E+03  0.44029403006E+03  0.00000000000E+00 0. -1.
       21   -1    0    0  502  503  0.00000000000E+00  0.00000000000E+00 -0.28489159102E+03  0.28489159102E+03  0.00000000000E+00 0. -1.
        6    1    1    2  501    0 -0.15978317471E+03  0.92753192379E+02  0.33039479036E+03  0.41674335641E+03  0.17430000000E+03 0. -1.
       -6    1    1    2    0  503  0.15978317471E+03 -0.92753192379E+02 -0.17499235132E+03  0.30844226467E+03  0.17430000000E+03 0. -1.
</event>
<event>
 4 661  0.7533903E-01  0.9118800E+02  0.7818608E-02  0.1300000E+00
       21   -1    0    0  501  502  0.00000000000E+00  0.00000000000E+00  0.71498039309E+03  0.71498039309E+03  0.00000000000E+00 0.  1.
       21   -1    0    0  502  503  0.00000000000E+00  0.00000000000E+00 -0.70006210959E+03  0.70006210959E+03  0.00000000000E+00 0.  1.
        6    1    1    2  501    0  0.54522644041E+02 -0.25106947841E+02  0.69053964648E+03  0.71472272310E+03  0.17430000000E+03 0.  1.
       -6    1    1    2    0  503 -0.54522644041E+02  0.25106947841E+02 -0.67562136299E+03  0.70031977958E+03  0.17430000000E+03 0.  1.
</event>
<event>
 4 661  0.7533903E-01  0.9118800E+02  0.7818608E-02  0.1300000E+00
       21   -1    0    0  502  503  0.00000000000E+00  0.00000000000E+00  0.12091460295E+03  0.12091460295E+03  0.00000000000E+00 0. -1.
       21   -1    0    0  501  502  0.00000000000E+00  0.00000000000E+00 -0.59675326442E+03  0.59675326442E+03  0.00000000000E+00 0.  1.
        6    1    1    2  501    0  0.74175191867E+02  0.51862209683E+02 -0.48272599501E+03  0.52114923404E+03  0.17430000000E+03 0.  1.
       -6    1    1    2    0  503 -0.74175191867E+02 -0.51862209683E+02  0.68873335439E+01  0.19651863333E+03  0.17430000000E+03 0. -1.
</event>
<event>
 4 661  0.7533903E-01  0.9118800E+02  0.7818608E-02  0.1300000E+00
       21   -1    0    0  502  503  0.00000000000E+00  0.00000000000E+00  0.70784274816E+03  0.70784274816E+03  0.00000000000E+00 0. -1.
       21   -1    0    0  501  502  0.00000000000E+00  0.00000000000E+00 -0.13496385477E+03  0.13496385477E+03  0.00000000000E+00 0.  1.
        6    1    1    2  501    0  0.93735653751E+02 -0.81722595837E+02 -0.17470858665E+02  0.21482708478E+03  0.17430000000E+03 0.  1.
       -6    1    1    2    0  503 -0.93735653751E+02  0.81722595837E+02  0.59034975206E+03  0.62797951814E+03  0.17430000000E+03 0. -1.
</event>
<event>
 4 661  0.7533903E-01  0.9118800E+02  0.7818608E-02  0.1300000E+00
       21   -1    0    0  502  503  0.00000000000E+00  0.00000000000E+00  0.13468067437E+03  0.13468067437E+03  0.00000000000E+00 0.  1.
       21   -1    0    0  501  502  0.00000000000E+00  0.00000000000E+00 -0.17554922790E+04  0.17554922790E+04  0.00000000000E+00 0.  1.
        6    1    1    2  501    0 -0.10097069018E+02 -0.79411924842E+01 -0.16923319129E+04  0.17013326561E+04  0.17430000000E+03 0.  1.
       -6    1    1    2    0  503  0.10097069018E+02  0.79411924842E+01  0.71520308334E+02  0.18884029720E+03  0.17430000000E+03 0.  1.
</event>
<event>
 4 661  0.7533903E-01  0.9118800E+02  0.7818608E-02  0.1300000E+00
       21   -1    0    0  501  502  0.00000000000E+00  0.00000000000E+00  0.68773259765E+03  0.68773259765E+03  0.00000000000E+00 0. -1.
       21   -1    0    0  502  503  0.00000000000E+00  0.00000000000E+00 -0.38501879665E+03  0.38501879665E+03  0.00000000000E+00 0. -1.
        6    1    1    2  501    0 -0.46835800922E+03 -0.54897092744E-01  0.23480526611E+02  0.50029096829E+03  0.17430000000E+03 0. -1.
       -6    1    1    2    0  503  0.46835800922E+03  0.54897092744E-01  0.27923327439E+03  0.57246042601E+03  0.17430000000E+03 0. -1.
</event>
<event>
 4 661  0.7533903E-01  0.9118800E+02  0.7818608E-02  0.1300000E+00
       21   -1    0    0  502  503  0.00000000000E+00  0.00000000000E+00  0.28939637012E+03  0.28939637012E+03  0.00000000000E+00 0. -1.
       21   -1    0    0  501  502  0.00000000000E+00  0.00000000000E+00 -0.25781633633E+03  0.25781633633E+03  0.00000000000E+00 0. -1.
        6    1    1    2  501    0 -0.85710301665E+01 -0.13586622062E+03 -0.14478209065E+03  0.26433962290E+03  0.17430000000E+03 0. -1.
       -6    1    1    2    0  503  0.85710301665E+01  0.13586622062E+03  0.17636212443E+03  0.28287308355E+03  0.17430000000E+03 0. -1.
</event>
<event>
 4 661  0.7533903E-01  0.9118800E+02  0.7818608E-02  0.1300000E+00
       -2   -1    0    0    0  502  0.00000000000E+00  0.00000000000E+00  0.20410346337E+03  0.20410346337E+03  0.00000000000E+00 0. -1.
        2   -1    0    0  501    0  0.00000000000E+00  0.00000000000E+00 -0.18573866683E+03  0.18573866683E+03  0.00000000000E+00 0.  1.
        6    1    1    2  501    0  0.79572179325E+01  0.86336162588E+02  0.12674095418E+02  0.19508555298E+03  0.17430000000E+03 0. -1.
       -6    1    1    2    0  502 -0.79572179325E+01 -0.86336162588E+02  0.56907011192E+01  0.19475657721E+03  0.17430000000E+03 0.  1.
</event>
<event>
 4 661  0.7533903E-01  0.9118800E+02  0.7818608E-02  0.1300000E+00
       -2   -1    0    0    0  502  0.00000000000E+00  0.00000000000E+00  0.11348893402E+03  0.11348893402E+03  0.00000000000E+00 0.  1.
        2   -1    0    0  501    0  0.00000000000E+00  0.00000000000E+00 -0.85957966920E+03  0.85957966920E+03  0.00000000000E+00 0. -1.
        6    1    1    2  501    0 -0.59007054196E+01 -0.14880099935E+03 -0.42615488245E+02  0.23318045709E+03  0.17430000000E+03 0.  1.
       -6    1    1    2    0  502  0.59007054196E+01  0.14880099935E+03 -0.70347524693E+03  0.73988814612E+03  0.17430000000E+03 0.  1.
</event>
<event>
 4 661  0.7533903E-01  0.9118800E+02  0.7818608E-02  0.1300000E+00
       21   -1    0    0  501  502  0.00000000000E+00  0.00000000000E+00  0.67735211224E+03  0.67735211224E+03  0.00000000000E+00 0.  1.
       21   -1    0    0  502  503  0.00000000000E+00  0.00000000000E+00 -0.14016636269E+03  0.14016636269E+03  0.00000000000E+00 0.  1.
        6    1    1    2  501    0  0.36955540124E+02  0.73106028074E+02  0.58766947216E+03  0.61842226820E+03  0.17430000000E+03 0.  1.
       -6    1    1    2    0  503 -0.36955540124E+02 -0.73106028074E+02 -0.50483722621E+02  0.19909620673E+03  0.17430000000E+03 0.  1.
</event>
<event>
 4 661  0.7533903E-01  0.9118800E+02  0.7818608E-02  0.1300000E+00
       21   -1    0    0  502  503  0.00000000000E+00  0.00000000000E+00  0.63706004030E+03  0.63706004030E+03  0.00000000000E+00 0. -1.
       21   -1    0    0  501  502  0.00000000000E+00  0.00000000000E+00 -0.34249215273E+03  0.34249215273E+03  0.00000000000E+00 0. -1.
        6    1    1    2  501    0 -0.83056813796E+02  0.73913008443E+02 -0.29190746433E+03  0.35770382283E+03  0.17430000000E+03 0. -1.
       -6    1    1    2    0  503  0.83056813796E+02 -0.73913008443E+02  0.58647535190E+03  0.62184837020E+03  0.17430000000E+03 0. -1.
</event>
<event>
 4 661  0.7533903E-01  0.9118800E+02  0.7818608E-02  0.1300000E+00
       21   -1    0    0  501  502  0.00000000000E+00  0.00000000000E+00  0.13631169416E+03  0.13631169416E+03  0.00000000000E+00 0.  1.
       21   -1    0    0  502  503  0.00000000000E+00  0.00000000000E+00 -0.90891556309E+03  0.90891556309E+03  0.00000000000E+00 0.  1.
        6    1    1    2  501    0 -0.15193555905E+03  0.20676996882E+03 -0.13929299868E+03  0.34003126854E+03  0.17430000000E+03 0.  1.
       -6    1    1    2    0  503  0.15193555905E+03 -0.20676996882E+03 -0.63331087025E+03  0.70519598870E+03  0.17430000000E+03 0.  1.
</event>
<event>
 4 661  0.7533903E-01  0.9118800E+02  0.7818608E-02  0.1300000E+00
       21   -1    0    0  502  503  0.00000000000E+00  0.00000000000E+00  0.16300898500E+03  0.16300898500E+03  0.00000000000E+00 0.  1.
       21   -1    0    0  501  502  0.00000000000E+00  0.00000000000E+00 -0.24922772157E+03  0.24922772157E+03  0.00000000000E+00 0.  1.
        6    1    1    2  501    0 -0.26300104015E+02  0.21866557507E+02 -0.14053216382E+03  0.22649419612E+03  0.17430000000E+03 0.  1.
       -6    1    1    2    0  503  0.26300104015E+02 -0.21866557507E+02  0.54313427244E+02  0.18574251045E+03  0.17430000000E+03 0.  1.
</event>
<event>
 4 661  0.7533903E-01  0.9118800E+02  0.7818608E-02  0.1300000E+00
       21   -1    0    0  501  502  0.00000000000E+00  0.00000000000E+00  0.68778494862E+03  0.68778494862E+03  0.00000000000E+00 0.  1.
       21   -1    0    0  502  503  0.00000000000E+00  0.00000000000E+00 -0.17956397130E+03  0.17956397130E+03  0.00000000000E+00 0.  1.
        6    1    1    2  501    0 -0.29051810249E+02 -0.28673065856E+02  0.62730139750E+03  0.65234475984E+03  0.17430000000E+03 0.  1.
       -6    1    1    2    0  503  0.29051810249E+02  0.28673065856E+02 -0.11908042017E+03  0.21500416008E+03  0.17430000000E+03 0.  1.
</event>
<event>
 4 661  0.7533903E-01  0.9118800E+02  0.7818608E-02  0.1300000E+00
        2   -1    0    0  501    0  0.00000000000E+00  0.00000000000E+00  0.65272622729E+02  0.65272622729E+02  0.00000000000E+00 0. -1.
       -2   -1    0    0    0  502  0.00000000000E+00  0.00000000000E+00 -0.11744099404E+04  0.11744099404E+04  0.00000000000E+00 0.  1.
        6    1    1    2  501    0  0.23609306834E+01  0.68450186215E+01 -0.10358936287E+04  0.10504801418E+04  0.17430000000E+03 0.  1.
       -6    1    1    2    0  502 -0.23609306834E+01 -0.68450186215E+01 -0.73243688970E+02  0.18920242136E+03  0.17430000000E+03 0. -1.
</event>
<event>
 4 661  0.7533903E-01  0.9118800E+02  0.7818608E-02  0.1300000E+00
        2   -1    0    0  501    0  0.00000000000E+00  0.00000000000E+00  0.79787785566E+03  0.79787785566E+03  0.00000000000E+00 0. -1.
       -2   -1    0    0    0  502  0.00000000000E+00  0.00000000000E+00 -0.22610109057E+03  0.22610109057E+03  0.00000000000E+00 0.  1.
        6    1    1    2  501    0  0.22532129561E+03  0.22497569327E+03  0.55173066592E+03  0.66043240876E+03  0.17430000000E+03 0. -1.
       -6    1    1    2    0  502 -0.22532129561E+03 -0.22497569327E+03  0.20046099163E+02  0.36354653748E+03  0.17430000000E+03 0.  1.
</event>
<event>
 4 661  0.7533903E-01  0.9118800E+02  0.7818608E-02  0.1300000E+00
       -2   -1    0    0    0  502  0.00000000000E+00  0.00000000000E+00  0.47911953790E+02  0.47911953790E+02  0.00000000000E+00 0.  1.
        2   -1    0    0  501    0  0.00000000000E+00  0.00000000000E+00 -0.90824392739E+03  0.90824392739E+03  0.00000000000E+00 0. -1.
        6    1    1    2  501    0  0.35241880716E+01 -0.78049837328E+02 -0.62233604953E+03  0.65098912860E+03  0.17430000000E+03 0. -1.
       -6    1    1    2    0  502 -0.35241880716E+01  0.78049837328E+02 -0.23799592408E+03  0.30516675259E+03  0.17430000000E+03 0.  1.
</event>
<event>
 4 661  0.7533903E-01  0.9118800E+02  0.7818608E-02  0.1300000E+00
       21   -1    0    0  501  502  0.00000000000E+00  0.00000000000E+00  0.18600933887E+03  0.18600933887E+03  0.00000000000E+00 0.  1.
       21   -1    0    0  502  503  0.00000000000E+00  0.00000000000E+00 -0.26397436804E+03  0.26397436804E+03  0.00000000000E+00 0.  1.
        6    1    1    2  501    0 -0.15286852888E+02  0.34413377037E+02  0.94579280147E+02  0.20185068398E+03  0.17430000000E+03 0.  1.
       -6    1    1    2    0  503  0.15286852888E+02 -0.34413377037E+02 -0.17254430932E+03  0.24813302293E+03  0.17430000000E+03 0.  1.
</event>
<event>
 4 661  0.7533903E-01  0.9118800E+02  0.7818608E-02  0.1300000E+00
       21   -1    0    0  501  502  0.00000000000E+00  0.00000000000E+00  0.19172446405E+03  0.19172446405E+03  0.00000000000E+00 0. -1.
       21   -1    0    0  502  503  0.00000000000E+00  0.00000000000E+00 -0.37460620606E+03  0.37460620606E+03  0.00000000000E+00 0. -1.
        6    1    1    2  501    0  0.69656888417E+02 -0.16466962569E+03 -0.19427718886E+03  0.31637364593E+03  0.17430000000E+03 0. -1.
       -6    1    1    2    0  503 -0.69656888417E+02  0.16466962569E+03  0.11395446862E+02  0.24995702418E+03  0.17430000000E+03 0. -1.
</event>
<event>
 4 661  0.7533903E-01  0.9118800E+02  0.7818608E-02  0.1300000E+00
       21   -1    0    0  502  503  0.00000000000E+00  0.00000000000E+00  0.31968824343E+03  0.31968824343E+03  0.00000000000E+00 0.  1.
       21   -1    0    0  501  502  0.00000000000E+00  0.00000000000E+00 -0.54607236388E+03  0.54607236388E+03  0.00000000000E+00 0. -1.
        6    1    1    2  501    0  0.23839565881E+02  0.26619926680E+03 -0.39265991283E+03  0.50595718366E+03  0.17430000000E+03 0. -1.
       -6    1    1    2    0  503 -0.23839565881E+02 -0.26619926680E+03  0.16627579238E+03  0.35980342366E+03  0.17430000000E+03 0.  1.
</event>
<event>
 4 661  0.7533903E-01  0.9118800E+02  0.7818608E-02  0.1300000E+00
       21   -1    0    0  501  502  0.00000000000E+00  0.00000000000E+00  0.13296296213E+03  0.13296296213E+03  0.00000000000E+00 0. -1.
       21   -1    0    0  502  503  0.00000000000E+00  0.00000000000E+00 -0.55549888848E+03  0.55549888848E+03  0.00000000000E+00 0. -1.
        6    1    1    2  501    0  0.10884684266E+03 -0.10836294462E+03 -0.32634959943E+02  0.23459687452E+03  0.17430000000E+03 0. -1.
       -6    1    1    2    0  503 -0.10884684266E+03  0.10836294462E+03 -0.38990096641E+03  0.45386497610E+03  0.17430000000E+03 0. -1.
</event>
<event>
 4 661  0.7533903E-01  0.9118800E+02  0.7818608E-02  0.1300000E+00
       21   -1    0    0  502  503  0.00000000000E+00  0.00000000000E+00  0.86176964047E+03  0.86176964047E+03  0.00000000000E+00 0.  1.
       21   -1    0    0  501  502  0.00000000000E+00  0.00000000000E+00 -0.68775141400E+02  0.68775141400E+02  0.00000000000E+00 0. -1.
        6    1    1    2  501    0 -0.58949814824E+02 -0.62111951628E+02  0.11590958022E+03  0.22616033249E+03  0.17430000000E+03 0. -1.
       -6    1    1    2    0  503  0.58949814824E+02  0.62111951628E+02  0.67708491885E+03  0.70438444939E+03  0.17430000000E+03 0.  1.
</event>
<event>
 4 661  0.7533903E-01  0.9118800E+02  0.7818608E-02  0.1300000E+00
       21   -1    0    0  501  502  0.00000000000E+00  0.00000000000E+00  0.97685258546E+03  0.97685258546E+03  0.00000000000E+00 0.  1.
       21   -1    0    0  502  503  0.00000000000E+00  0.00000000000E+00 -0.64099068364E+02  0.64099068364E+02  0.00000000000E+00 0. -1.
        6    1    1    2  501    0  0.67301300831E+02 -0.66712222905E+02  0.77356501540E+03  0.79860084450E+03  0.17430000000E+03 0.  1.
       -6    1    1    2    0  503 -0.67301300831E+02  0.66712222905E+02  0.13918850170E+03  0.24235080933E+03  0.17430000000E+03 0. -1.
</event>
<event>
 4 661  0.7533903E-01  0.9118800E+02  0.7818608E-02  0.1300000E+00
       21   -1    0    0  502  503  0.00000000000E+00  0.00000000000E+00  0.89483104418E+03  0.89483104418E+03  0.00000000000E+00 0.  1.
       21   -1    0    0  501  502  0.00000000000E+00  0.00000000000E+00 -0.65933628202E+02  0.65933628202E+02  0.00000000000E+00 0.  1.
        6    1    1    2  501    0 -0.95143931928E+02 -0.10069020553E+03  0.22241622428E+03  0.31470677161E+03  0.17430000000E+03 0.  1.
       -6    1    1    2    0  503  0.95143931928E+02  0.10069020553E+03  0.60648119170E+03  0.64605790078E+03  0.17430000000E+03 0.  1.
</event>
<event>
 4 661  0.7533903E-01  0.9118800E+02  0.7818608E-02  0.1300000E+00
       21   -1    0    0  502  503  0.00000000000E+00  0.00000000000E+00  0.27915914738E+03  0.27915914738E+03  0.00000000000E+00 0.  1.
       21   -1    0    0  501  502  0.00000000000E+00  0.00000000000E+00 -0.58143028693E+03  0.58143028693E+03  0.00000000000E+00 0. -1.
        6    1    1    2  501    0 -0.25255901257E+03 -0.23236208817E+03 -0.27819706169E+03  0.47492345698E+03  0.17430000000E+03 0. -1.
       -6    1    1    2    0  503  0.25255901257E+03  0.23236208817E+03 -0.24074077858E+02  0.38566597734E+03  0.17430000000E+03 0.  1.
</event>
<event>
 4 661  0.7533903E-01  0.9118800E+02  0.7818608E-02  0.1300000E+00
       21   -1    0    0  501  502  0.00000000000E+00  0.00000000000E+00  0.14562385541E+03  0.14562385541E+03  0.00000000000E+00 0.  1.
       21   -1    0    0  502  503  0.00000000000E+00  0.00000000000E+00 -0.44581871903E+03  0.44581871903E+03  0.00000000000E+00 0. -1.
        6    1    1    2  501    0  0.14931360537E+03 -0.55002002196E+02 -0.38644938045E+02  0.23915203162E+03  0.17430000000E+03 0. -1.
       -6    1    1    2    0  503 -0.14931360537E+03  0.55002002196E+02 -0.26154992557E+03  0.35229054282E+03  0.17430000000E+03 0. -1.
</event>
<event>
 4 661  0.7533903E-01  0.9118800E+02  0.7818608E-02  0.1300000E+00
        1   -1    0    0  501    0  0.00000000000E+00  0.00000000000E+00  0.12168460517E+04  0.12168460517E+04  0.00000000000E+00 0. -1.
       -1   -1    0    0    0  502  0.00000000000E+00  0.00000000000E+00 -0.83166117728E+02  0.83166117728E+02  0.00000000000E+00 0.  1.
        6    1    1    2  501    0 -0.42164502777E+02 -0.19834069963E+03  0.91898899957E+03  0.95709881922E+03  0.17430000000E+03 0. -1.
       -6    1    1    2    0  502  0.42164502777E+02  0.19834069963E+03  0.21469093436E+03  0.34291335016E+03  0.17430000000E+03 0.  1.
</event>
<event>
 4 661  0.7533903E-01  0.9118800E+02  0.7818608E-02  0.1300000E+00
       21   -1    0    0  501  502  0.00000000000E+00  0.00000000000E+00  0.23910840264E+03  0.23910840264E+03  0.00000000000E+00 0.  1.
       21   -1    0    0  502  503  0.00000000000E+00  0.00000000000E+00 -0.33036811278E+03  0.33036811278E+03  0.00000000000E+00 0.  1.
        6    1    1    2  501    0 -0.45133537733E+02 -0.16960405154E+03  0.89574355794E+02  0.26307152211E+03  0.17430000000E+03 0.  1.
       -6    1    1    2    0  503  0.45133537733E+02  0.16960405154E+03 -0.18083406593E+03  0.30640499331E+03  0.17430000000E+03 0.  1.
</event>
<event>
 4 661  0.7533903E-01  0.9118800E+02  0.7818608E-02  0.1300000E+00
       21   -1    0    0  502  503  0.00000000000E+00  0.00000000000E+00  0.83770068579E+03  0.83770068579E+03  0.00000000000E+00 0. -1.
       21   -1    0    0  501  502  0.00000000000E+00  0.00000000000E+00 -0.95298532487E+02  0.95298532487E+02  0.00000000000E+00 0. -1.
        6    1    1    2  501    0  0.55393983335E+02 -0.20840910351E+03  0.46085105368E+03  0.53783550598E+03  0.17430000000E+03 0. -1.
       -6    1    1    2    0  503 -0.55393983335E+02  0.20840910351E+03  0.28155109963E+03  0.39516371230E+03  0.17430000000E+03 0. -1.
</event>
<event>
 4 661  0.7533903E-01  0.9118800E+02  0.7818608E-02  0.1300000E+00
       21   -1    0    0  502  503  0.00000000000E+00  0.00000000000E+00  0.10197371251E+04  0.10197371251E+04  0.00000000000E+00 0.  1.
       21   -1    0    0  501  502  0.00000000000E+00  0.00000000000E+00 -0.40750932973E+02  0.40750932973E+02  0.00000000000E+00 0.  1.
        6    1    1    2  501    0 -0.72599100172E+02  0.38176750744E+02  0.31604096505E+03  0.37012224363E+03  0.17430000000E+03 0.  1.
       -6    1    1    2    0  503  0.72599100172E+02 -0.38176750744E+02  0.66294522710E+03  0.69036581446E+03  0.17430000000E+03 0.  1.
</event>
<event>
 4 661  0.7533903E-01  0.9118800E+02  0.7818608E-02  0.1300000E+00
       -2   -1    0    0    0  502  0.00000000000E+00  0.00000000000E+00  0.32475978899E+02  0.32475978899E+02  0.00000000000E+00 0. -1.
        2   -1    0    0  501    0  0.00000000000E+00  0.00000000000E+00 -0.21932249355E+04  0.21932249355E+04  0.00000000000E+00 0.  1.
        6    1    1    2  501    0 -0.16115682006E+03  0.61402621116E+02 -0.64096427714E+03  0.68626343128E+03  0.17430000000E+03 0. -1.
       -6    1    1    2    0  502  0.16115682006E+03 -0.61402621116E+02 -0.15197846794E+04  0.15394374831E+04  0.17430000000E+03 0.  1.
</event>
<event>
 4 661  0.7533903E-01  0.9118800E+02  0.7818608E-02  0.1300000E+00
        2   -1    0    0  501    0  0.00000000000E+00  0.00000000000E+00  0.59310717405E+03  0.59310717405E+03  0.00000000000E+00 0.  1.
       -2   -1    0    0    0  502  0.00000000000E+00  0.00000000000E+00 -0.51314111327E+02  0.51314111327E+02  0.00000000000E+00 0. -1.
        6    1    1    2  501    0  0.71844120163E+01  0.13534260448E+01  0.27257920243E+03  0.32362533759E+03  0.17430000000E+03 0.  1.
       -6    1    1    2    0  502 -0.71844120163E+01 -0.13534260448E+01  0.26921386030E+03  0.32079594778E+03  0.17430000000E+03 0.  1.
</event>
<event>
 4 661  0.7533903E-01  0.9118800E+02  0.7818608E-02  0.1300000E+00
       21   -1    0    0  502  503  0.00000000000E+00  0.00000000000E+00  0.15627913083E+02  0.15627913083E+02  0.00000000000E+00 0.  1.
       21   -1    0    0  501  502  0.00000000000E+00  0.00000000000E+00 -0.25756477782E+04  0.25756477782E+04  0.00000000000E+00 0.  1.
        6    1    1    2  501    0 -0.30739957321E+02  0.34866938835E+02 -0.18470860255E+04  0.18558738977E+04  0.17430000000E+03 0.  1.
       -6    1    1    2    0  503  0.30739957321E+02 -0.34866938835E+02 -0.71293383958E+03  0.73540179360E+03  0.17430000000E+03 0.  1.
</event>
<event>
 4 661  0.7533903E-01  0.9118800E+02  0.7818608E-02  0.1300000E+00
       21   -1    0    0  501  502  0.00000000000E+00  0.00000000000E+00  0.92360600745E+02  0.92360600745E+02  0.00000000000E+00 0.  1.
       21   -1    0    0  502  503  0.00000000000E+00  0.00000000000E+00 -0.81335329181E+03  0.81335329181E+03  0.00000000000E+00 0. -1.
        6    1    1    2  501    0 -0.10602715918E+03 -0.13643370989E+03 -0.15891135295E+03  0.29238540281E+03  0.17430000000E+03 0.  1.
       -6    1    1    2    0  503  0.10602715918E+03  0.13643370989E+03 -0.56208133812E+03  0.61332848975E+03  0.17430000000E+03 0. -1.
</event>
<event>
 4 661  0.7533903E-01  0.9118800E+02  0.7818608E-02  0.1300000E+00
       21   -1    0    0  502  503  0.00000000000E+00  0.00000000000E+00  0.25555902964E+03  0.25555902964E+03  0.00000000000E+00 0.  1.
       21   -1    0    0  501  502  0.00000000000E+00  0.00000000000E+00 -0.14677723176E+03  0.14677723176E+03  0.00000000000E+00 0.  1.
        6    1    1    2  501    0  0.50781100878E+02  0.49556020321E+02  0.10193546137E+03  0.21402300727E+03  0.17430000000E+03 0.  1.
       -6    1    1    2    0  503 -0.50781100878E+02 -0.49556020321E+02  0.68463365040E+01  0.18831325413E+03  0.17430000000E+03 0.  1.
</event>
<event>
 4 661  0.7533903E-01  0.9118800E+02  0.7818608E-02  0.1300000E+00
       -1   -1    0    0    0  502  0.00000000000E+00  0.00000000000E+00  0.35030263014E+03  0.35030263014E+03  0.00000000000E+00 0.  1.
        1   -1    0    0  501    0  0.00000000000E+00  0.00000000000E+00 -0.17291250645E+03  0.17291250645E+03  0.00000000000E+00 0. -1.
        6    1    1    2  501    0  0.62063983769E+01 -0.15781926728E+03  0.11707557196E+02  0.23550583305E+03  0.17430000000E+03 0. -1.
       -6    1    1    2    0  502 -0.62063983769E+01  0.15781926728E+03  0.16568256649E+03  0.28770930354E+03  0.17430000000E+03 0.  1.
</event>
<event>
 4 661  0.7533903E-01  0.9118800E+02  0.7818608E-02  0.1300000E+00
       21   -1    0    0  501  502  0.00000000000E+00  0.00000000000E+00  0.27090076218E+03  0.27090076218E+03  0.00000000000E+00 0. -1.
       21   -1    0    0  502  503  0.00000000000E+00  0.00000000000E+00 -0.84401704826E+03  0.84401704826E+03  0.00000000000E+00 0. -1.
        6    1    1    2  501    0  0.58837437522E+02 -0.23151456194E+03  0.15152336311E+03  0.33226594170E+03  0.17430000000E+03 0. -1.
       -6    1    1    2    0  503 -0.58837437522E+02  0.23151456194E+03 -0.72463964920E+03  0.78265186874E+03  0.17430000000E+03 0. -1.
</event>
<event>
 4 661  0.7533903E-01  0.9118800E+02  0.7818608E-02  0.1300000E+00
       21   -1    0    0  502  503  0.00000000000E+00  0.00000000000E+00  0.67659290186E+02  0.67659290186E+02  0.00000000000E+00 0. -1.
       21   -1    0    0  501  502  0.00000000000E+00  0.00000000000E+00 -0.10412406751E+04  0.10412406751E+04  0.00000000000E+00 0. -1.
        6    1    1    2  501    0 -0.18353384387E+03  0.79851542448E+02 -0.49276308875E+03  0.55969357001E+03  0.17430000000E+03 0. -1.
       -6    1    1    2    0  503  0.18353384387E+03 -0.79851542448E+02 -0.48081829614E+03  0.54920639525E+03  0.17430000000E+03 0. -1.
</event>
<event>
 4 661  0.7533903E-01  0.9118800E+02  0.7818608E-02  0.1300000E+00
       21   -1    0    0  502  503  0.00000000000E+00  0.00000000000E+00  0.47660039495E+03  0.47660039495E+03  0.00000000000E+00 0. -1.
       21   -1    0    0  501  502  0.00000000000E+00  0.00000000000E+00 -0.99400480695E+02  0.99400480695E+02  0.00000000000E+00 0.  1.
        6    1    1    2  501    0 -0.57932080629E+02 -0.10170949610E+03  0.11267071732E+03  0.23827741837E+03  0.17430000000E+03 0. -1.
       -6    1    1    2    0  503  0.57932080629E+02  0.10170949610E+03  0.26452919694E+03  0.33772345728E+03  0.17430000000E+03 0.  1.
</event>
<event>
 4 661  0.7533903E-01  0.9118800E+02  0.7818608E-02  0.1300000E+00
       -1   -1    0    0    0  502  0.00000000000E+00  0.00000000000E+00  0.33468425661E+03  0.33468425661E+03  0.00000000000E+00 0.  1.
        1   -1    0    0  501    0  0.00000000000E+00  0.00000000000E+00 -0.18006280759E+03  0.18006280759E+03  0.00000000000E+00 0. -1.
        6    1    1    2  501    0 -0.58862892613E+02  0.13232942027E+02  0.24715352613E+03  0.30839148231E+03  0.17430000000E+03 0.  1.
       -6    1    1    2    0  502  0.58862892613E+02 -0.13232942027E+02 -0.92532077119E+02  0.20635558189E+03  0.17430000000E+03 0. -1.
</event>
<event>
 4 661  0.7533903E-01  0.9118800E+02  0.7818608E-02  0.1300000E+00
       21   -1    0    0  501  502  0.00000000000E+00  0.00000000000E+00  0.14718215547E+03  0.14718215547E+03  0.00000000000E+00 0. -1.
       21   -1    0    0  502  503  0.00000000000E+00  0.00000000000E+00 -0.75296112352E+03  0.75296112352E+03  0.00000000000E+00 0.  1.
        6    1    1    2  501    0 -0.95074316738E+02 -0.62015340955E+02  0.48511296154E+02  0.21358573003E+03  0.17430000000E+03 0. -1.
       -6    1    1    2    0  503  0.95074316738E+02  0.62015340955E+02 -0.65429026420E+03  0.68655754897E+03  0.17430000000E+03 0.  1.
</event>
<event>
 4 661  0.7533903E-01  0.9118800E+02  0.7818608E-02  0.1300000E+00
        1   -1    0    0  501    0  0.00000000000E+00  0.00000000000E+00  0.83285373672E+02  0.83285373672E+02  0.00000000000E+00 0. -1.
       -1   -1    0    0    0  502  0.00000000000E+00  0.00000000000E+00 -0.54787155404E+03  0.54787155404E+03  0.00000000000E+00 0.  1.
        6    1    1    2  501    0 -0.27854673853E+02  0.44586602381E+02 -0.39736909828E+03  0.43708870751E+03  0.17430000000E+03 0.  1.
       -6    1    1    2    0  502  0.27854673853E+02 -0.44586602381E+02 -0.67217082089E+02  0.19406822020E+03  0.17430000000E+03 0. -1.
</event>
<event>
 4 661  0.7533903E-01  0.9118800E+02  0.7818608E-02  0.1300000E+00
       21   -1    0    0  502  503  0.00000000000E+00  0.00000000000E+00  0.73928769552E+03  0.73928769552E+03  0.00000000000E+00 0.  1.
       21   -1    0    0  501  502  0.00000000000E+00  0.00000000000E+00 -0.54430141643E+02  0.54430141643E+02  0.00000000000E+00 0.  1.
        6    1    1    2  501    0  0.60925327443E+02  0.52426963431E+02  0.45776275442E+03  0.49637456759E+03  0.17430000000E+03 0.  1.
       -6    1    1    2    0  503 -0.60925327443E+02 -0.52426963431E+02  0.22709479946E+03  0.29734326957E+03  0.17430000000E+03 0.  1.
</event>
<event>
 4 661  0.7533903E-01  0.9118800E+02  0.7818608E-02  0.1300000E+00
       21   -1    0    0  501  502  0.00000000000E+00  0.00000000000E+00  0.23811810261E+03  0.23811810261E+03  0.00000000000E+00 0. -1.
       21   -1    0    0  502  503  0.00000000000E+00  0.00000000000E+00 -0.27074670656E+03  0.27074670656E+03  0.00000000000E+00 0.  1.
        6    1    1    2  501    0  0.15715110513E+03 -0.90072072006E+02  0.19533116155E+02  0.25213385458E+03  0.17430000000E+03 0. -1.
       -6    1    1    2    0  503 -0.15715110513E+03  0.90072072006E+02 -0.52161720102E+02  0.25673095459E+03  0.17430000000E+03 0. -1.
</event>
<event>
 4 661  0.7533903E-01  0.9118800E+02  0.7818608E-02  0.1300000E+00
       21   -1    0    0  501  502  0.00000000000E+00  0.00000000000E+00  0.48455932450E+03  0.48455932450E+03  0.00000000000E+00 0.  1.
       21   -1    0    0  502  503  0.00000000000E+00  0.00000000000E+00 -0.22107298586E+03  0.22107298586E+03  0.00000000000E+00 0. -1.
        6    1    1    2  501    0  0.11222621093E+03  0.14422782596E+03  0.35617381223E+03  0.43661958582E+03  0.17430000000E+03 0.  1.
       -6    1    1    2    0  503 -0.11222621093E+03 -0.14422782596E+03 -0.92687473591E+02  0.26901272453E+03  0.17430000000E+03 0. -1.
</event>
<event>
 4 661  0.7533903E-01  0.9118800E+02  0.7818608E-02  0.1300000E+00
       21   -1    0    0  502  503  0.00000000000E+00  0.00000000000E+00  0.32768215283E+03  0.32768215283E+03  0.00000000000E+00 0.  1.
       21   -1    0    0  501  502  0.00000000000E+00  0.00000000000E+00 -0.21268354010E+03  0.21268354010E+03  0.00000000000E+00 0. -1.
        6    1    1    2  501    0  0.14153888672E+03  0.69168642848E+02 -0.65716620153E+02  0.24396049223E+03  0.17430000000E+03 0. -1.
       -6    1    1    2    0  503 -0.14153888672E+03 -0.69168642848E+02  0.18071523289E+03  0.29640520070E+03  0.17430000000E+03 0.  1.
</event>
<event>
 4 661  0.7533903E-01  0.9118800E+02  0.7818608E-02  0.1300000E+00
       21   -1    0    0  501  502  0.00000000000E+00  0.00000000000E+00  0.55691991183E+03  0.55691991183E+03  0.00000000000E+00 0.  1.
       21   -1    0    0  502  503  0.00000000000E+00  0.00000000000E+00 -0.10737545914E+03  0.10737545914E+03  0.00000000000E+00 0.  1.
        6    1    1    2  501    0  0.13085045471E+03 -0.53196973449E+02  0.35693069321E+03  0.42158245841E+03  0.17430000000E+03 0.  1.
       -6    1    1    2    0  503 -0.13085045471E+03  0.53196973449E+02  0.92613759476E+02  0.24271291257E+03  0.17430000000E+03 0.  1.
</event>
<event>
 4 661  0.7533903E-01  0.9118800E+02  0.7818608E-02  0.1300000E+00
       21   -1    0    0  501  502  0.00000000000E+00  0.00000000000E+00  0.35183177262E+03  0.35183177262E+03  0.00000000000E+00 0.  1.
       21   -1    0    0  502  503  0.00000000000E+00  0.00000000000E+00 -0.37444970833E+03  0.37444970833E+03  0.00000000000E+00 0.  1.
        6    1    1    2  501    0 -0.12721683359E+02 -0.13693984643E+03  0.27596875587E+03  0.35419430682E+03  0.17430000000E+03 0.  1.
       -6    1    1    2    0  503  0.12721683359E+02  0.13693984643E+03 -0.29858669158E+03  0.37208717413E+03  0.17430000000E+03 0.  1.
</event>
<event>
 4 661  0.7533903E-01  0.9118800E+02  0.7818608E-02  0.1300000E+00
       21   -1    0    0  501  502  0.00000000000E+00  0.00000000000E+00  0.11443822785E+03  0.11443822785E+03  0.00000000000E+00 0. -1.
       21   -1    0    0  502  503  0.00000000000E+00  0.00000000000E+00 -0.34002946664E+03  0.34002946664E+03  0.00000000000E+00 0.  1.
        6    1    1    2  501    0  0.91506128437E+02  0.96996628640E+01 -0.10354959637E+03  0.22264425416E+03  0.17430000000E+03 0. -1.
       -6    1    1    2    0  503 -0.91506128437E+02 -0.96996628640E+01 -0.12204164243E+03  0.23182344033E+03  0.17430000000E+03 0.  1.
</event>
<event>
 4 661  0.7533903E-01  0.9118800E+02  0.7818608E-02  0.1300000E+00
       21   -1    0    0  502  503  0.00000000000E+00  0.00000000000E+00  0.18513117448E+03  0.18513117448E+03  0.00000000000E+00 0.  1.
       21   -1    0    0  501  502  0.00000000000E+00  0.00000000000E+00 -0.59397203238E+03  0.59397203238E+03  0.00000000000E+00 0.  1.
        6    1    1    2  501    0 -0.18486679592E+03 -0.15567154997E+03 -0.37535592326E+03  0.47925141922E+03  0.17430000000E+03 0.  1.
       -6    1    1    2    0  503  0.18486679592E+03  0.15567154997E+03 -0.33484934645E+02  0.29985178764E+03  0.17430000000E+03 0.  1.
</event>
<event>
 4 661  0.7533903E-01  0.9118800E+02  0.7818608E-02  0.1300000E+00
       21   -1    0    0  502  503  0.00000000000E+00  0.00000000000E+00  0.11411430301E+03  0.11411430301E+03  0.00000000000E+00 0.  1.
       21   -1    0    0  501  502  0.00000000000E+00  0.00000000000E+00 -0.36336147454E+03  0.36336147454E+03  0.00000000000E+00 0.  1.
        6    1    1    2  501    0 -0.32940428447E+02 -0.86813776033E+01 -0.24141775453E+03  0.29970562281E+03  0.17430000000E+03 0.  1.
       -6    1    1    2    0  503  0.32940428447E+02  0.86813776033E+01 -0.78294170066E+01  0.17777015473E+03  0.17430000000E+03 0.  1.
</event>
<event>
 4 661  0.7533903E-01  0.9118800E+02  0.7818608E-02  0.1300000E+00
       21   -1    0    0  502  503  0.00000000000E+00  0.00000000000E+00  0.13160684362E+03  0.13160684362E+03  0.00000000000E+00 0. -1.
       21   -1    0    0  501  502  0.00000000000E+00  0.00000000000E+00 -0.33158985287E+03  0.33158985287E+03  0.00000000000E+00 0. -1.
        6    1    1    2  501    0  0.33117314968E+02  0.11780117718E+02 -0.22155708527E+03  0.28408371963E+03  0.17430000000E+03 0. -1.
       -6    1    1    2    0  503 -0.33117314968E+02 -0.11780117718E+02  0.21574076022E+02  0.17911297686E+03  0.17430000000E+03 0. -1.
</event>
<event>
 4 661  0.7533903E-01  0.9118800E+02  0.7818608E-02  0.1300000E+00
       21   -1    0    0  502  503  0.00000000000E+00  0.00000000000E+00  0.56856429724E+03  0.56856429724E+03  0.00000000000E+00 0. -1.
       21   -1    0    0  501  502  0.00000000000E+00  0.00000000000E+00 -0.63226802952E+02  0.63226802952E+02  0.00000000000E+00 0. -1.
        6    1    1    2  501    0 -0.38775429600E+02  0.56187662931E+02  0.30285774983E+03  0.35603917486E+03  0.17430000000E+03 0.  1.
       -6    1    1    2    0  503  0.38775429600E+02 -0.56187662931E+02  0.20247974446E+03  0.27575192533E+03  0.17430000000E+03 0.  1.
</event>
<event>
 4 661  0.7533903E-01  0.9118800E+02  0.7818608E-02  0.1300000E+00
       21   -1    0    0  502  503  0.00000000000E+00  0.00000000000E+00  0.38407865259E+03  0.38407865259E+03  0.00000000000E+00 0.  1.
       21   -1    0    0  501  502  0.00000000000E+00  0.00000000000E+00 -0.21188233316E+03  0.21188233316E+03  0.00000000000E+00 0.  1.
        6    1    1    2  501    0 -0.15186637530E+02  0.90163473092E+02 -0.12959352306E+03  0.23565877251E+03  0.17430000000E+03 0.  1.
       -6    1    1    2    0  503  0.15186637530E+02 -0.90163473092E+02  0.30178984249E+03  0.36030221325E+03  0.17430000000E+03 0.  1.
</event>
<event>
 4 661  0.7533903E-01  0.9118800E+02  0.7818608E-02  0.1300000E+00
       21   -1    0    0  502  503  0.00000000000E+00  0.00000000000E+00  0.38197866290E+02  0.38197866290E+02  0.00000000000E+00 0. -1.
       21   -1    0    0  501  502  0.00000000000E+00  0.00000000000E+00 -0.11517519814E+04  0.11517519814E+04  0.00000000000E+00 0.  1.
        6    1    1    2  501    0 -0.71483799489E+02  0.82212996761E+02 -0.67527362594E+03  0.70586391770E+03  0.17430000000E+03 0.  1.
       -6    1    1    2    0  503  0.71483799489E+02 -0.82212996761E+02 -0.43828048921E+03  0.48408593002E+03  0.17430000000E+03 0. -1.
</event>
<event>
 4 661  0.7533903E-01  0.9118800E+02  0.7818608E-02  0.1300000E+00
       21   -1    0    0  501  502  0.00000000000E+00  0.00000000000E+00  0.40054244048E+02  0.40054244048E+02  0.00000000000E+00 0.  1.
       21   -1    0    0  502  503  0.00000000000E+00  0.00000000000E+00 -0.10868832346E+04  0.10868832346E+04  0.00000000000E+00 0. -1.
        6    1    1    2  501    0 -0.10741998733E+03 -0.35058604020E+02 -0.47038183369E+03  0.51420591095E+03  0.17430000000E+03 0.  1.
       -6    1    1    2    0  503  0.10741998733E+03  0.35058604020E+02 -0.57644715683E+03  0.61273156766E+03  0.17430000000E+03 0. -1.
</event>
<event>
 4 661  0.7533903E-01  0.9118800E+02  0.7818608E-02  0.1300000E+00
       -2   -1    0    0    0  502  0.00000000000E+00  0.00000000000E+00  0.18170862365E+02  0.18170862365E+02  0.00000000000E+00 0. -1.
        2   -1    0    0  501    0  0.00000000000E+00  0.00000000000E+00 -0.18578515021E+04  0.18578515021E+04  0.00000000000E+00 0.  1.
        6    1    1    2  501    0 -0.12547429962E+02  0.56721773056E+02 -0.92935906645E+03  0.94734553461E+03  0.17430000000E+03 0. -1.
       -6    1    1    2    0  502  0.12547429962E+02 -0.56721773056E+02 -0.91032157327E+03  0.92867682985E+03  0.17430000000E+03 0. -1.
</event>
<event>
 4 661  0.7533903E-01  0.9118800E+02  0.7818608E-02  0.1300000E+00
       21   -1    0    0  502  503  0.00000000000E+00  0.00000000000E+00  0.29742512924E+03  0.29742512924E+03  0.00000000000E+00 0. -1.
       21   -1    0    0  501  502  0.00000000000E+00  0.00000000000E+00 -0.66925951264E+03  0.66925951264E+03  0.00000000000E+00 0. -1.
        6    1    1    2  501    0  0.61629079755E+02  0.23276200149E+03 -0.54636155647E+03  0.62198692366E+03  0.17430000000E+03 0. -1.
       -6    1    1    2    0  503 -0.61629079755E+02 -0.23276200149E+03  0.17452717307E+03  0.34469771823E+03  0.17430000000E+03 0. -1.
</event>
<event>
 4 661  0.7533903E-01  0.9118800E+02  0.7818608E-02  0.1300000E+00
        2   -1    0    0  501    0  0.00000000000E+00  0.00000000000E+00  0.18126415621E+03  0.18126415621E+03  0.00000000000E+00 0.  1.
       -2   -1    0    0    0  502  0.00000000000E+00  0.00000000000E+00 -0.23636506430E+03  0.23636506430E+03  0.00000000000E+00 0. -1.
        6    1    1    2  501    0  0.57563205128E+02  0.82926343075E+02  0.20553640814E+02  0.20246788168E+03  0.17430000000E+03 0.  1.
       -6    1    1    2    0  502 -0.57563205128E+02 -0.82926343075E+02 -0.75654548899E+02  0.21516133884E+03  0.17430000000E+03 0. -1.
</event>
<event>
 4 661  0.7533903E-01  0.9118800E+02  0.7818608E-02  0.1300000E+00
       21   -1    0    0  502  503  0.00000000000E+00  0.00000000000E+00  0.14297784535E+04  0.14297784535E+04  0.00000000000E+00 0.  1.
       21   -1    0    0  501  502  0.00000000000E+00  0.00000000000E+00 -0.13017875422E+03  0.13017875422E+03  0.00000000000E+00 0.  1.
        6    1    1    2  501    0  0.20734693461E+02  0.77896405664E+02 -0.48646838560E+02  0.19810295917E+03  0.17430000000E+03 0.  1.
       -6    1    1    2    0  503 -0.20734693461E+02 -0.77896405664E+02  0.13482465379E+04  0.13618542486E+04  0.17430000000E+03 0.  1.
</event>
<event>
 4 661  0.7533903E-01  0.9118800E+02  0.7818608E-02  0.1300000E+00
       21   -1    0    0  501  502  0.00000000000E+00  0.00000000000E+00  0.91104201849E+02  0.91104201849E+02  0.00000000000E+00 0. -1.
       21   -1    0    0  502  503  0.00000000000E+00  0.00000000000E+00 -0.60474432048E+03  0.60474432048E+03  0.00000000000E+00 0.  1.
        6    1    1    2  501    0  0.13592627919E+03  0.20187722494E+02 -0.14363418356E+03  0.26437618312E+03  0.17430000000E+03 0. -1.
       -6    1    1    2    0  503 -0.13592627919E+03 -0.20187722494E+02 -0.37000593506E+03  0.43147233920E+03  0.17430000000E+03 0.  1.
</event>
<event>
 4 661  0.7533903E-01  0.9118800E+02  0.7818608E-02  0.1300000E+00
       21   -1    0    0  501  502  0.00000000000E+00  0.00000000000E+00  0.30244418152E+03  0.30244418152E+03  0.00000000000E+00 0.  1.
       21   -1    0    0  502  503  0.00000000000E+00  0.00000000000E+00 -0.22409764004E+03  0.22409764004E+03  0.00000000000E+00 0.  1.
        6    1    1    2  501    0  0.18345689747E+00 -0.43088003312E+02  0.22981584208E+03  0.29163748208E+03  0.17430000000E+03 0.  1.
       -6    1    1    2    0  503 -0.18345689747E+00  0.43088003312E+02 -0.15146930059E+03  0.23490433948E+03  0.17430000000E+03 0.  1.
</event>
<event>
 4 661  0.7533903E-01  0.9118800E+02  0.7818608E-02  0.1300000E+00
       21   -1    0    0  502  503  0.00000000000E+00  0.00000000000E+00  0.27023845967E+03  0.27023845967E+03  0.00000000000E+00 0.  1.
       21   -1    0    0  501  502  0.00000000000E+00  0.00000000000E+00 -0.17154057325E+03  0.17154057325E+03  0.00000000000E+00 0.  1.
        6    1    1    2  501    0  0.20311713297E+02 -0.11185393345E+03 -0.73331771301E+01  0.20822615977E+03  0.17430000000E+03 0.  1.
       -6    1    1    2    0  503 -0.20311713297E+02  0.11185393345E+03  0.10603106355E+03  0.23355287316E+03  0.17430000000E+03 0.  1.
</event>
<event>
 4 661  0.7533903E-01  0.9118800E+02  0.7818608E-02  0.1300000E+00
       21   -1    0    0  501  502  0.00000000000E+00  0.00000000000E+00  0.49532612656E+03  0.49532612656E+03  0.00000000000E+00 0.  1.
       21   -1    0    0  502  503  0.00000000000E+00  0.00000000000E+00 -0.10439706551E+03  0.10439706551E+03  0.00000000000E+00 0.  1.
        6    1    1    2  501    0  0.12901598000E+03  0.37571550755E+02  0.27090909247E+03  0.34904007063E+03  0.17430000000E+03 0.  1.
       -6    1    1    2    0  503 -0.12901598000E+03 -0.37571550755E+02  0.12001996858E+03  0.25068312145E+03  0.17430000000E+03 0.  1.
</event>
<event>
 4 661  0.7533903E-01  0.9118800E+02  0.7818608E-02  0.1300000E+00
       21   -1    0    0  502  503  0.00000000000E+00  0.00000000000E+00  0.70167772915E+02  0.70167772915E+02  0.00000000000E+00 0.  1.
       21   -1    0    0  501  502  0.00000000000E+00  0.00000000000E+00 -0.17568607621E+04  0.17568607621E+04  0.00000000000E+00 0.  1.
        6    1    1    2  501    0 -0.46424248735E+02 -0.92183148936E+02 -0.15894919898E+04  0.16023477212E+04  0.17430000000E+03 0.  1.
       -6    1    1    2    0  503  0.46424248735E+02  0.92183148936E+02 -0.97200999301E+02  0.22468081379E+03  0.17430000000E+03 0.  1.
</event>
<event>
 4 661  0.7533903E-01  0.9118800E+02  0.7818608E-02  0.1300000E+00
       21   -1    0    0  501  502  0.00000000000E+00  0.00000000000E+00  0.13167583184E+04  0.13167583184E+04  0.00000000000E+00 0.  1.
       21   -1    0    0  502  503  0.00000000000E+00  0.00000000000E+00 -0.71708842287E+02  0.71708842287E+02  0.00000000000E+00 0.  1.
        6    1    1    2  501    0 -0.40549023184E+02  0.70822354137E+02  0.11637233803E+04  0.11795306799E+04  0.17430000000E+03 0.  1.
       -6    1    1    2    0  503  0.40549023184E+02 -0.70822354137E+02  0.81326095856E+02  0.20893648076E+03  0.17430000000E+03 0.  1.
</event>
<event>
 4 661  0.7533903E-01  0.9118800E+02  0.7818608E-02  0.1300000E+00
       21   -1    0    0  502  503  0.00000000000E+00  0.00000000000E+00  0.32260155857E+03  0.32260155857E+03  0.00000000000E+00 0. -1.
       21   -1    0    0  501  502  0.00000000000E+00  0.00000000000E+00 -0.26542782617E+03  0.26542782617E+03  0.00000000000E+00 0. -1.
        6    1    1    2  501    0 -0.23196219735E+02 -0.45323494424E+01 -0.20638178438E+03  0.27116883619E+03  0.17430000000E+03 0. -1.
       -6    1    1    2    0  503  0.23196219735E+02  0.45323494424E+01  0.26355551678E+03  0.31686054855E+03  0.17430000000E+03 0. -1.
</event>
<event>
 4 661  0.7533903E-01  0.9118800E+02  0.7818608E-02  0.1300000E+00
       -1   -1    0    0    0  502  0.00000000000E+00  0.00000000000E+00  0.46516024885E+03  0.46516024885E+03  0.00000000000E+00 0.  1.
        1   -1    0    0  501    0  0.00000000000E+00  0.00000000000E+00 -0.13132483839E+03  0.13132483839E+03  0.00000000000E+00 0. -1.
        6    1    1    2  501    0 -0.16068295881E+03  0.24849467486E+02  0.24576987349E+03  0.34237381617E+03  0.17430000000E+03 0.  1.
       -6    1    1    2    0  502  0.16068295881E+03 -0.24849467486E+02  0.88065536970E+02  0.25411127108E+03  0.17430000000E+03 0. -1.
</event>
<event>
 4 661  0.7533903E-01  0.9118800E+02  0.7818608E-02  0.1300000E+00
       21   -1    0    0  501  502  0.00000000000E+00  0.00000000000E+00  0.35572191908E+03  0.35572191908E+03  0.00000000000E+00 0. -1.
       21   -1    0    0  502  503  0.00000000000E+00  0.00000000000E+00 -0.17519551037E+03  0.17519551037E+03  0.00000000000E+00 0. -1.
        6    1    1    2  501    0 -0.93262149879E+01 -0.82096309575E+01  0.27984570276E+03  0.32992193573E+03  0.17430000000E+03 0. -1.
       -6    1    1    2    0  503  0.93262149879E+01  0.82096309575E+01 -0.99319294038E+02  0.20099549372E+03  0.17430000000E+03 0. -1.
</event>
<event>
 4 661  0.7533903E-01  0.9118800E+02  0.7818608E-02  0.1300000E+00
       21   -1    0    0  501  502  0.00000000000E+00  0.00000000000E+00  0.41064829468E+03  0.41064829468E+03  0.00000000000E+00 0. -1.
       21   -1    0    0  502  503  0.00000000000E+00  0.00000000000E+00 -0.11763487534E+03  0.11763487534E+03  0.00000000000E+00 0. -1.
        6    1    1    2  501    0  0.11100152889E+02 -0.55576453632E+02  0.29228766696E+03  0.34499931283E+03  0.17430000000E+03 0. -1.
       -6    1    1    2    0  503 -0.11100152889E+02  0.55576453632E+02  0.72575237648E+00  0.18328385720E+03  0.17430000000E+03 0. -1.
</event>
<event>
 4 661  0.7533903E-01  0.9118800E+02  0.7818608E-02  0.1300000E+00
       21   -1    0    0  501  502  0.00000000000E+00  0.00000000000E+00  0.68915313741E+02  0.68915313741E+02  0.00000000000E+00 0.  1.
       21   -1    0    0  502  503  0.00000000000E+00  0.00000000000E+00 -0.56759346502E+03  0.56759346502E+03  0.00000000000E+00 0.  1.
        6    1    1    2  501    0  0.36111323589E+01 -0.93265980199E+02 -0.25719075873E+03  0.32440585647E+03  0.17430000000E+03 0.  1.
       -6    1    1    2    0  503 -0.36111323589E+01  0.93265980199E+02 -0.24148739256E+03  0.31210292229E+03  0.17430000000E+03 0.  1.
</event>
<event>
 4 661  0.7533903E-01  0.9118800E+02  0.7818608E-02  0.1300000E+00
       21   -1    0    0  501  502  0.00000000000E+00  0.00000000000E+00  0.43183511339E+03  0.43183511339E+03  0.00000000000E+00 0.  1.
       21   -1    0    0  502  503  0.00000000000E+00  0.00000000000E+00 -0.14800896868E+03  0.14800896868E+03  0.00000000000E+00 0. -1.
        6    1    1    2  501    0 -0.18053451895E+03  0.21679383988E+02  0.16683456980E+03  0.30212079025E+03  0.17430000000E+03 0.  1.
       -6    1    1    2    0  503  0.18053451895E+03 -0.21679383988E+02  0.11699157491E+03  0.27772329183E+03  0.17430000000E+03 0. -1.
</event>
<event>
 4 661  0.7533903E-01  0.9118800E+02  0.7818608E-02  0.1300000E+00
       21   -1    0    0  502  503  0.00000000000E+00  0.00000000000E+00  0.27400809541E+03  0.27400809541E+03  0.00000000000E+00 0. -1.
       21   -1    0    0  501  502  0.00000000000E+00  0.00000000000E+00 -0.19671494689E+03  0.19671494689E+03  0.00000000000E+00 0.  1.
        6    1    1    2  501    0 -0.62106404386E+02 -0.70180384507E+02 -0.84426151157E+02  0.21515286853E+03  0.17430000000E+03 0.  1.
       -6    1    1    2    0  503  0.62106404386E+02  0.70180384507E+02  0.16171929967E+03  0.25557017377E+03  0.17430000000E+03 0. -1.
</event>
<event>
 4 661  0.7533903E-01  0.9118800E+02  0.7818608E-02  0.1300000E+00
       21   -1    0    0  501  502  0.00000000000E+00  0.00000000000E+00  0.51495220201E+03  0.51495220201E+03  0.00000000000E+00 0.  1.
       21   -1    0    0  502  503  0.00000000000E+00  0.00000000000E+00 -0.70484180484E+02  0.70484180484E+02  0.00000000000E+00 0. -1.
        6    1    1    2  501    0  0.69102146423E+02 -0.16770311015E+01  0.27405556345E+03  0.33206153185E+03  0.17430000000E+03 0.  1.
       -6    1    1    2    0  503 -0.69102146423E+02  0.16770311015E+01  0.17041245808E+03  0.25337485065E+03  0.17430000000E+03 0.  1.
</event>
<event>
 4 661  0.7533903E-01  0.9118800E+02  0.7818608E-02  0.1300000E+00
       21   -1    0    0  501  502  0.00000000000E+00  0.00000000000E+00  0.17130968511E+03  0.17130968511E+03  0.00000000000E+00 0.  1.
       21   -1    0    0  502  503  0.00000000000E+00  0.00000000000E+00 -0.45354976700E+03  0.45354976700E+03  0.00000000000E+00 0. -1.
        6    1    1    2  501    0 -0.13623607194E+03  0.14085229229E+03 -0.35275946255E+02  0.26462146157E+03  0.17430000000E+03 0.  1.
       -6    1    1    2    0  503  0.13623607194E+03 -0.14085229229E+03 -0.24696413564E+03  0.36023799054E+03  0.17430000000E+03 0. -1.
</event>
<event>
 4 661  0.7533903E-01  0.9118800E+02  0.7818608E-02  0.1300000E+00
       21   -1    0    0  502  503  0.00000000000E+00  0.00000000000E+00  0.40837336234E+02  0.40837336234E+02  0.00000000000E+00 0.  1.
       21   -1    0    0  501  502  0.00000000000E+00  0.00000000000E+00 -0.78163369023E+03  0.78163369023E+03  0.00000000000E+00 0.  1.
        6    1    1    2  501    0 -0.25367087120E+02 -0.29314474521E+02 -0.35648816813E+03  0.39870682405E+03  0.17430000000E+03 0.  1.
       -6    1    1    2    0  503  0.25367087120E+02  0.29314474521E+02 -0.38430818586E+03  0.42376420241E+03  0.17430000000E+03 0.  1.
</event>
<event>
 4 661  0.7533903E-01  0.9118800E+02  0.7818608E-02  0.1300000E+00
       21   -1    0    0  501  502  0.00000000000E+00  0.00000000000E+00  0.10882536834E+04  0.10882536834E+04  0.00000000000E+00 0.  1.
       21   -1    0    0  502  503  0.00000000000E+00  0.00000000000E+00 -0.98379142829E+02  0.98379142829E+02  0.00000000000E+00 0.  1.
        6    1    1    2  501    0  0.48287976867E+02  0.14783311693E+03  0.91039529465E+03  0.93988639829E+03  0.17430000000E+03 0.  1.
       -6    1    1    2    0  503 -0.48287976867E+02 -0.14783311693E+03  0.79479245933E+02  0.24674642795E+03  0.17430000000E+03 0.  1.
</event>
<event>
 4 661  0.7533903E-01  0.9118800E+02  0.7818608E-02  0.1300000E+00
       -2   -1    0    0    0  502  0.00000000000E+00  0.00000000000E+00  0.26308374702E+02  0.26308374702E+02  0.00000000000E+00 0. -1.
        2   -1    0    0  501    0  0.00000000000E+00  0.00000000000E+00 -0.13431164641E+04  0.13431164641E+04  0.00000000000E+00 0.  1.
        6    1    1    2  501    0 -0.24007891364E+02 -0.43656123188E+02 -0.83952604908E+03  0.85887526046E+03  0.17430000000E+03 0.  1.
       -6    1    1    2    0  502  0.24007891364E+02  0.43656123188E+02 -0.47728204031E+03  0.51054957834E+03  0.17430000000E+03 0.  1.
</event>
<event>
 4 661  0.7533903E-01  0.9118800E+02  0.7818608E-02  0.1300000E+00
       21   -1    0    0  501  502  0.00000000000E+00  0.00000000000E+00  0.19158524212E+04  0.19158524212E+04  0.00000000000E+00 0.  1.
       21   -1    0    0  502  503  0.00000000000E+00  0.00000000000E+00 -0.26465938771E+02  0.26465938771E+02  0.00000000000E+00 0.  1.
        6    1    1    2  501    0  0.76909306120E+01 -0.64262534950E+01  0.15580288092E+04  0.15677801847E+04  0.17430000000E+03 0.  1.
       -6    1    1    2    0  503 -0.76909306120E+01  0.64262534950E+01  0.33135767320E+03  0.37453817527E+03  0.17430000000E+03 0.  1.
</event>
<event>
 4 661  0.7533903E-01  0.9118800E+02  0.7818608E-02  0.1300000E+00
       21   -1    0    0  501  502  0.00000000000E+00  0.00000000000E+00  0.59017271709E+02  0.59017271709E+02  0.00000000000E+00 0. -1.
       21   -1    0    0  502  503  0.00000000000E+00  0.00000000000E+00 -0.72155724652E+03  0.72155724652E+03  0.00000000000E+00 0.  1.
        6    1    1    2  501    0  0.53307021735E+02  0.95895307445E+02 -0.30688022799E+03  0.36958559616E+03  0.17430000000E+03 0. -1.
       -6    1    1    2    0  503 -0.53307021735E+02 -0.95895307445E+02 -0.35565974681E+03  0.41098892206E+03  0.17430000000E+03 0.  1.
</event>
<event>
 4 661  0.7533903E-01  0.9118800E+02  0.7818608E-02  0.1300000E+00
       21   -1    0    0  502  503  0.00000000000E+00  0.00000000000E+00  0.31316826659E+03  0.31316826659E+03  0.00000000000E+00 0. -1.
       21   -1    0    0  501  502  0.00000000000E+00  0.00000000000E+00 -0.42163008839E+03  0.42163008839E+03  0.00000000000E+00 0. -1.
        6    1    1    2  501    0  0.19703447800E+02  0.13769758721E+03 -0.34430879352E+03  0.41021687761E+03  0.17430000000E+03 0. -1.
       -6    1    1    2    0  503 -0.19703447800E+02 -0.13769758721E+03  0.23584697172E+03  0.32458147737E+03  0.17430000000E+03 0. -1.
</event>
<event>
 4 661  0.7533903E-01  0.9118800E+02  0.7818608E-02  0.1300000E+00
       21   -1    0    0  502  503  0.00000000000E+00  0.00000000000E+00  0.11603613709E+03  0.11603613709E+03  0.00000000000E+00 0.  1.
       21   -1    0    0  501  502  0.00000000000E+00  0.00000000000E+00 -0.34646459414E+03  0.34646459414E+03  0.00000000000E+00 0.  1.
        6    1    1    2  501    0  0.62288546909E+02  0.39511552441E+02 -0.38876733897E+02  0.19321727741E+03  0.17430000000E+03 0.  1.
       -6    1    1    2    0  503 -0.62288546909E+02 -0.39511552441E+02 -0.19155172315E+03  0.26928345381E+03  0.17430000000E+03 0.  1.
</event>
<event>
 4 661  0.7533903E-01  0.9118800E+02  0.7818608E-02  0.1300000E+00
       21   -1    0    0  501  502  0.00000000000E+00  0.00000000000E+00  0.42963207472E+03  0.42963207472E+03  0.00000000000E+00 0. -1.
       21   -1    0    0  502  503  0.00000000000E+00  0.00000000000E+00 -0.10701306616E+03  0.10701306616E+03  0.00000000000E+00 0. -1.
        6    1    1    2  501    0 -0.40744542768E+02 -0.59043410857E+02  0.28922951564E+03  0.34522520888E+03  0.17430000000E+03 0. -1.
       -6    1    1    2    0  503  0.40744542768E+02  0.59043410857E+02  0.33389492920E+02  0.19141993200E+03  0.17430000000E+03 0. -1.
</event>
<event>
 4 661  0.7533903E-01  0.9118800E+02  0.7818608E-02  0.1300000E+00
       21   -1    0    0  502  503  0.00000000000E+00  0.00000000000E+00  0.19567227678E+03  0.19567227678E+03  0.00000000000E+00 0. -1.
       21   -1    0    0  501  502  0.00000000000E+00  0.00000000000E+00 -0.64579379156E+03  0.64579379156E+03  0.00000000000E+00 0.  1.
        6    1    1    2  501    0  0.21345958048E+03 -0.16982718986E+03 -0.39891785252E+03  0.51373359826E+03  0.17430000000E+03 0.  1.
       -6    1    1    2    0  503 -0.21345958048E+03  0.16982718986E+03 -0.51203662267E+02  0.32773247008E+03  0.17430000000E+03 0. -1.
</event>
<event>
 4 661  0.7533903E-01  0.9118800E+02  0.7818608E-02  0.1300000E+00
       21   -1    0    0  501  502  0.00000000000E+00  0.00000000000E+00  0.44844016266E+03  0.44844016266E+03  0.00000000000E+00 0. -1.
       21   -1    0    0  502  503  0.00000000000E+00  0.00000000000E+00 -0.27686465840E+03  0.27686465840E+03  0.00000000000E+00 0.  1.
        6    1    1    2  501    0 -0.30010572697E+03 -0.16994308155E+02  0.14601630356E+03  0.37689986041E+03  0.17430000000E+03 0. -1.
       -6    1    1    2    0  503  0.30010572697E+03  0.16994308155E+02  0.25559200689E+02  0.34840496065E+03  0.17430000000E+03 0.  1.
</event>
<event>
 4 661  0.7533903E-01  0.9118800E+02  0.7818608E-02  0.1300000E+00
       21   -1    0    0  501  502  0.00000000000E+00  0.00000000000E+00  0.11854197756E+03  0.11854197756E+03  0.00000000000E+00 0.  1.
       21   -1    0    0  502  503  0.00000000000E+00  0.00000000000E+00 -0.37724299466E+03  0.37724299466E+03  0.00000000000E+00 0.  1.
        6    1    1    2  501    0 -0.62915332270E+02  0.84716696497E+02 -0.63003535451E+02  0.21327257953E+03  0.17430000000E+03 0.  1.
       -6    1    1    2    0  503  0.62915332270E+02 -0.84716696497E+02 -0.19569748164E+03  0.28251239269E+03  0.17430000000E+03 0.  1.
</event>
<event>
 4 661  0.7533903E-01  0.9118800E+02  0.7818608E-02  0.1300000E+00
       21   -1    0    0  501  502  0.00000000000E+00  0.00000000000E+00  0.88836359508E+02  0.88836359508E+02  0.00000000000E+00 0.  1.
       21   -1    0    0  502  503  0.00000000000E+00  0.00000000000E+00 -0.67015539560E+03  0.67015539560E+03  0.00000000000E+00 0. -1.
        6    1    1    2  501    0 -0.29487282499E+02 -0.16641754331E+03 -0.32841852423E+03  0.40841586111E+03  0.17430000000E+03 0. -1.
       -6    1    1    2    0  503  0.29487282499E+02  0.16641754331E+03 -0.25290051186E+03  0.35057589400E+03  0.17430000000E+03 0.  1.
</event>
<event>
 4 661  0.7533903E-01  0.9118800E+02  0.7818608E-02  0.1300000E+00
       21   -1    0    0  502  503  0.00000000000E+00  0.00000000000E+00  0.98735687841E+03  0.98735687841E+03  0.00000000000E+00 0. -1.
       21   -1    0    0  501  502  0.00000000000E+00  0.00000000000E+00 -0.36579960844E+02  0.36579960844E+02  0.00000000000E+00 0. -1.
        6    1    1    2  501    0 -0.28557015128E+02  0.12359299233E+02  0.28935722387E+03  0.33922905005E+03  0.17430000000E+03 0. -1.
       -6    1    1    2    0  503  0.28557015128E+02 -0.12359299233E+02  0.66141969370E+03  0.68470778921E+03  0.17430000000E+03 0. -1.
</event>
<event>
 4 661  0.7533903E-01  0.9118800E+02  0.7818608E-02  0.1300000E+00
       21   -1    0    0  501  502  0.00000000000E+00  0.00000000000E+00  0.27642300862E+02  0.27642300862E+02  0.00000000000E+00 0. -1.
       21   -1    0    0  502  503  0.00000000000E+00  0.00000000000E+00 -0.14859221385E+04  0.14859221385E+04  0.00000000000E+00 0. -1.
        6    1    1    2  501    0  0.58967974901E+02 -0.16621481528E+02 -0.41805741886E+03  0.45706234933E+03  0.17430000000E+03 0. -1.
       -6    1    1    2    0  503 -0.58967974901E+02  0.16621481528E+02 -0.10402224187E+04  0.10565020900E+04  0.17430000000E+03 0. -1.
</event>
<event>
 4 661  0.7533903E-01  0.9118800E+02  0.7818608E-02  0.1300000E+00
       -1   -1    0    0    0  502  0.00000000000E+00  0.00000000000E+00  0.24382021841E+03  0.24382021841E+03  0.00000000000E+00 0. -1.
        1   -1    0    0  501    0  0.00000000000E+00  0.00000000000E+00 -0.32348720357E+03  0.32348720357E+03  0.00000000000E+00 0.  1.
        6    1    1    2  501    0 -0.33935614218E+02 -0.14396597783E+03 -0.20460549314E+03  0.30679264416E+03  0.17430000000E+03 0. -1.
       -6    1    1    2    0  502  0.33935614218E+02  0.14396597783E+03  0.12493850798E+03  0.26051477782E+03  0.17430000000E+03 0. -1.
</event>
<event>
 4 661  0.7533903E-01  0.9118800E+02  0.7818608E-02  0.1300000E+00
       21   -1    0    0  501  502  0.00000000000E+00  0.00000000000E+00  0.56957875352E+02  0.56957875352E+02  0.00000000000E+00 0.  1.
       21   -1    0    0  502  503  0.00000000000E+00  0.00000000000E+00 -0.58553534878E+03  0.58553534878E+03  0.00000000000E+00 0.  1.
        6    1    1    2  501    0 -0.83844367738E+01 -0.52384219966E+02 -0.28625638389E+03  0.33931933721E+03  0.17430000000E+03 0.  1.
       -6    1    1    2    0  503  0.83844367738E+01  0.52384219966E+02 -0.24232108953E+03  0.30317388693E+03  0.17430000000E+03 0.  1.
</event>
<event>
 4 661  0.7533903E-01  0.9118800E+02  0.7818608E-02  0.1300000E+00
        4   -1    0    0  501    0  0.00000000000E+00  0.00000000000E+00  0.10421856862E+03  0.10421856862E+03  0.00000000000E+00 0. -1.
       -4   -1    0    0    0  502  0.00000000000E+00  0.00000000000E+00 -0.34988627102E+03  0.34988627102E+03  0.00000000000E+00 0.  1.
        6    1    1    2  501    0  0.41209212515E+02 -0.52832065785E+02 -0.75351336622E+02  0.20136469478E+03  0.17430000000E+03 0.  1.
       -6    1    1    2    0  502 -0.41209212515E+02  0.52832065785E+02 -0.17031636579E+03  0.25274014486E+03  0.17430000000E+03 0.  1.
</event>
<event>
 4 661  0.7533903E-01  0.9118800E+02  0.7818608E-02  0.1300000E+00
       21   -1    0    0  502  503  0.00000000000E+00  0.00000000000E+00  0.35913573292E+03  0.35913573292E+03  0.00000000000E+00 0.  1.
       21   -1    0    0  501  502  0.00000000000E+00  0.00000000000E+00 -0.99149356983E+02  0.99149356983E+02  0.00000000000E+00 0.  1.
        6    1    1    2  501    0 -0.31939398065E+02 -0.21247070675E+02  0.55572163961E+02  0.18692329595E+03  0.17430000000E+03 0.  1.
       -6    1    1    2    0  503  0.31939398065E+02  0.21247070675E+02  0.20441421198E+03  0.27136179396E+03  0.17430000000E+03 0.  1.
</event>
<event>
 4 661  0.7533903E-01  0.9118800E+02  0.7818608E-02  0.1300000E+00
       21   -1    0    0  501  502  0.00000000000E+00  0.00000000000E+00  0.22933086588E+03  0.22933086588E+03  0.00000000000E+00 0.  1.
       21   -1    0    0  502  503  0.00000000000E+00  0.00000000000E+00 -0.20213673170E+03  0.20213673170E+03  0.00000000000E+00 0.  1.
        6    1    1    2  501    0 -0.92216072246E+02  0.13862280033E+02  0.99088402006E+02  0.22112206629E+03  0.17430000000E+03 0.  1.
       -6    1    1    2    0  503  0.92216072246E+02 -0.13862280033E+02 -0.71894267823E+02  0.21034553129E+03  0.17430000000E+03 0.  1.
</event>
<event>
 4 661  0.7533903E-01  0.9118800E+02  0.7818608E-02  0.1300000E+00
       21   -1    0    0  502  503  0.00000000000E+00  0.00000000000E+00  0.14014708334E+03  0.14014708334E+03  0.00000000000E+00 0. -1.
       21   -1    0    0  501  502  0.00000000000E+00  0.00000000000E+00 -0.69109974369E+03  0.69109974369E+03  0.00000000000E+00 0. -1.
        6    1    1    2  501    0  0.48764074383E+02 -0.39960124983E+02 -0.60934750469E+03  0.63691413708E+03  0.17430000000E+03 0. -1.
       -6    1    1    2    0  503 -0.48764074383E+02  0.39960124983E+02  0.58394844334E+02  0.19433268995E+03  0.17430000000E+03 0. -1.
</event>
<event>
 4 661  0.7533903E-01  0.9118800E+02  0.7818608E-02  0.1300000E+00
       21   -1    0    0  502  503  0.00000000000E+00  0.00000000000E+00  0.17734566042E+03  0.17734566042E+03  0.00000000000E+00 0.  1.
       21   -1    0    0  501  502  0.00000000000E+00  0.00000000000E+00 -0.34409200300E+03  0.34409200300E+03  0.00000000000E+00 0.  1.
        6    1    1    2  501    0  0.10740281364E+03 -0.24688475717E+02 -0.22691730067E+03  0.30662165050E+03  0.17430000000E+03 0.  1.
       -6    1    1    2    0  503 -0.10740281364E+03  0.24688475717E+02  0.60170958094E+02  0.21481601292E+03  0.17430000000E+03 0.  1.
</event>
<event>
 4 661  0.7533903E-01  0.9118800E+02  0.7818608E-02  0.1300000E+00
       21   -1    0    0  501  502  0.00000000000E+00  0.00000000000E+00  0.68700522104E+02  0.68700522104E+02  0.00000000000E+00 0. -1.
       21   -1    0    0  502  503  0.00000000000E+00  0.00000000000E+00 -0.14741259607E+04  0.14741259607E+04  0.00000000000E+00 0.  1.
        6    1    1    2  501    0 -0.64133710559E+02 -0.20785214337E+03 -0.33050545534E+03  0.43235401275E+03  0.17430000000E+03 0. -1.
       -6    1    1    2    0  503  0.64133710559E+02  0.20785214337E+03 -0.10749199832E+04  0.11104724700E+04  0.17430000000E+03 0.  1.
</event>
<event>
 4 661  0.7533903E-01  0.9118800E+02  0.7818608E-02  0.1300000E+00
       21   -1    0    0  501  502  0.00000000000E+00  0.00000000000E+00  0.50570298643E+03  0.50570298643E+03  0.00000000000E+00 0. -1.
       21   -1    0    0  502  503  0.00000000000E+00  0.00000000000E+00 -0.88822237261E+02  0.88822237261E+02  0.00000000000E+00 0.  1.
        6    1    1    2  501    0 -0.88019846008E+02 -0.67298454284E+02  0.27512781625E+03  0.34402380807E+03  0.17430000000E+03 0. -1.
       -6    1    1    2    0  503  0.88019846008E+02  0.67298454284E+02  0.14175293292E+03  0.25050141563E+03  0.17430000000E+03 0.  1.
</event>
<event>
 4 661  0.7533903E-01  0.9118800E+02  0.7818608E-02  0.1300000E+00
       21   -1    0    0  502  503  0.00000000000E+00  0.00000000000E+00  0.16046385817E+03  0.16046385817E+03  0.00000000000E+00 0. -1.
       21   -1    0    0  501  502  0.00000000000E+00  0.00000000000E+00 -0.12877847213E+04  0.12877847213E+04  0.00000000000E+00 0. -1.
        6    1    1    2  501    0 -0.28123558537E+03 -0.60138130324E+02 -0.10508862047E+04  0.11033822341E+04  0.17430000000E+03 0. -1.
       -6    1    1    2    0  503  0.28123558537E+03  0.60138130324E+02 -0.76434658454E+02  0.34486634543E+03  0.17430000000E+03 0. -1.
</event>
<event>
 4 661  0.7533903E-01  0.9118800E+02  0.7818608E-02  0.1300000E+00
       21   -1    0    0  502  503  0.00000000000E+00  0.00000000000E+00  0.13852450055E+03  0.13852450055E+03  0.00000000000E+00 0. -1.
       21   -1    0    0  501  502  0.00000000000E+00  0.00000000000E+00 -0.68362407675E+03  0.68362407675E+03  0.00000000000E+00 0. -1.
        6    1    1    2  501    0 -0.89098156166E+02  0.71211988769E+02 -0.57513191886E+03  0.61169178748E+03  0.17430000000E+03 0. -1.
       -6    1    1    2    0  503  0.89098156166E+02 -0.71211988769E+02  0.30032342665E+02  0.21045678982E+03  0.17430000000E+03 0. -1.
</event>
<event>
 4 661  0.7533903E-01  0.9118800E+02  0.7818608E-02  0.1300000E+00
       -2   -1    0    0    0  502  0.00000000000E+00  0.00000000000E+00  0.23036835385E+02  0.23036835385E+02  0.00000000000E+00 0.  1.
        2   -1    0    0  501    0  0.00000000000E+00  0.00000000000E+00 -0.19667077285E+04  0.19667077285E+04  0.00000000000E+00 0. -1.
        6    1    1    2  501    0  0.48974585519E+02 -0.91159543243E+02 -0.12753795388E+04  0.12913876375E+04  0.17430000000E+03 0.  1.
       -6    1    1    2    0  502 -0.48974585519E+02  0.91159543243E+02 -0.66829135438E+03  0.69835692643E+03  0.17430000000E+03 0.  1.
</event>
<event>
 4 661  0.7533903E-01  0.9118800E+02  0.7818608E-02  0.1300000E+00
       21   -1    0    0  501  502  0.00000000000E+00  0.00000000000E+00  0.13266062265E+03  0.13266062265E+03  0.00000000000E+00 0.  1.
       21   -1    0    0  502  503  0.00000000000E+00  0.00000000000E+00 -0.88219142100E+03  0.88219142100E+03  0.00000000000E+00 0.  1.
        6    1    1    2  501    0  0.18279841074E+03  0.10111170560E+03 -0.67142369769E+02  0.28022745011E+03  0.17430000000E+03 0.  1.
       -6    1    1    2    0  503 -0.18279841074E+03 -0.10111170560E+03 -0.68238842858E+03  0.73462459354E+03  0.17430000000E+03 0.  1.
</event>
<event>
 4 661  0.7533903E-01  0.9118800E+02  0.7818608E-02  0.1300000E+00
       21   -1    0    0  502  503  0.00000000000E+00  0.00000000000E+00  0.40077397477E+03  0.40077397477E+03  0.00000000000E+00 0. -1.
       21   -1    0    0  501  502  0.00000000000E+00  0.00000000000E+00 -0.18813076373E+03  0.18813076373E+03  0.00000000000E+00 0.  1.
        6    1    1    2  501    0  0.23221638942E+02 -0.13501709978E+03  0.28005693719E+03  0.35718516181E+03  0.17430000000E+03 0. -1.
       -6    1    1    2    0  503 -0.23221638942E+02  0.13501709978E+03 -0.67413726157E+02  0.23171957669E+03  0.17430000000E+03 0.  1.
</event>
<event>
 4 661  0.7533903E-01  0.9118800E+02  0.7818608E-02  0.1300000E+00
       21   -1    0    0  502  503  0.00000000000E+00  0.00000000000E+00  0.11574761523E+04  0.11574761523E+04  0.00000000000E+00 0.  1.
       21   -1    0    0  501  502  0.00000000000E+00  0.00000000000E+00 -0.14275003890E+03  0.14275003890E+03  0.00000000000E+00 0. -1.
        6    1    1    2  501    0  0.19871167184E+03 -0.20277748545E+02  0.14534028130E+02  0.26549810467E+03  0.17430000000E+03 0. -1.
       -6    1    1    2    0  503 -0.19871167184E+03  0.20277748545E+02  0.10001920853E+04  0.10347280865E+04  0.17430000000E+03 0.  1.
</event>
<event>
 4 661  0.7533903E-01  0.9118800E+02  0.7818608E-02  0.1300000E+00
       21   -1    0    0  502  503  0.00000000000E+00  0.00000000000E+00  0.18593941943E+03  0.18593941943E+03  0.00000000000E+00 0. -1.
       21   -1    0    0  501  502  0.00000000000E+00  0.00000000000E+00 -0.53482720440E+03  0.53482720440E+03  0.00000000000E+00 0. -1.
        6    1    1    2  501    0  0.47920955879E+02  0.23687457796E+03 -0.29242980114E+03  0.41749450570E+03  0.17430000000E+03 0. -1.
       -6    1    1    2    0  503 -0.47920955879E+02 -0.23687457796E+03 -0.56457983819E+02  0.30327211812E+03  0.17430000000E+03 0. -1.
</event>
<event>
 4 661  0.7533903E-01  0.9118800E+02  0.7818608E-02  0.1300000E+00
       21   -1    0    0  502  503  0.00000000000E+00  0.00000000000E+00  0.12220775339E+03  0.12220775339E+03  0.00000000000E+00 0.  1.
       21   -1    0    0  501  502  0.00000000000E+00  0.00000000000E+00 -0.10495599579E+04  0.10495599579E+04  0.00000000000E+00 0.  1.
        6    1    1    2  501    0  0.28635836687E+03 -0.11411436667E+03 -0.55117297317E+03  0.65513001711E+03  0.17430000000E+03 0.  1.
       -6    1    1    2    0  503 -0.28635836687E+03  0.11411436667E+03 -0.37617923135E+03  0.51663769419E+03  0.17430000000E+03 0.  1.
</event>
<event>
 4 661  0.7533903E-01  0.9118800E+02  0.7818608E-02  0.1300000E+00
       21   -1    0    0  501  502  0.00000000000E+00  0.00000000000E+00  0.99294865897E+03  0.99294865897E+03  0.00000000000E+00 0.  1.
       21   -1    0    0  502  503  0.00000000000E+00  0.00000000000E+00 -0.73996964649E+02  0.73996964649E+02  0.00000000000E+00 0. -1.
        6    1    1    2  501    0 -0.14864412698E+03 -0.26541463933E+02  0.73985020954E+03  0.77495699774E+03  0.17430000000E+03 0.  1.
       -6    1    1    2    0  503  0.14864412698E+03  0.26541463933E+02  0.17910148478E+03  0.29198862588E+03  0.17430000000E+03 0. -1.
</event>
<event>
 4 661  0.7533903E-01  0.9118800E+02  0.7818608E-02  0.1300000E+00
       21   -1    0    0  501  502  0.00000000000E+00  0.00000000000E+00  0.11949318140E+04  0.11949318140E+04  0.00000000000E+00 0.  1.
       21   -1    0    0  502  503  0.00000000000E+00  0.00000000000E+00 -0.20705524992E+03  0.20705524992E+03  0.00000000000E+00 0. -1.
        6    1    1    2  501    0 -0.17598961816E+03  0.60510067155E+02  0.10958251106E+04  0.11250986521E+04  0.17430000000E+03 0.  1.
       -6    1    1    2    0  503  0.17598961816E+03 -0.60510067155E+02 -0.10794854650E+03  0.27688841185E+03  0.17430000000E+03 0. -1.
</event>
<event>
 4 661  0.7533903E-01  0.9118800E+02  0.7818608E-02  0.1300000E+00
       21   -1    0    0  502  503  0.00000000000E+00  0.00000000000E+00  0.83378495701E+03  0.83378495701E+03  0.00000000000E+00 0. -1.
       21   -1    0    0  501  502  0.00000000000E+00  0.00000000000E+00 -0.19879986934E+03  0.19879986934E+03  0.00000000000E+00 0. -1.
        6    1    1    2  501    0  0.83123468197E+02 -0.17772498664E+03 -0.77217439721E+02  0.27356663693E+03  0.17430000000E+03 0. -1.
       -6    1    1    2    0  503 -0.83123468197E+02  0.17772498664E+03  0.71220252739E+03  0.75901818942E+03  0.17430000000E+03 0. -1.
</event>
<event>
 4 661  0.7533903E-01  0.9118800E+02  0.7818608E-02  0.1300000E+00
       21   -1    0    0  502  503  0.00000000000E+00  0.00000000000E+00  0.21444608505E+03  0.21444608505E+03  0.00000000000E+00 0. -1.
       21   -1    0    0  501  502  0.00000000000E+00  0.00000000000E+00 -0.13013909884E+04  0.13013909884E+04  0.00000000000E+00 0.  1.
        6    1    1    2  501    0  0.14062269567E+03  0.35469537545E+02 -0.12280262626E+04  0.12487841376E+04  0.17430000000E+03 0.  1.
       -6    1    1    2    0  503 -0.14062269567E+03 -0.35469537545E+02  0.14108135924E+03  0.26705293587E+03  0.17430000000E+03 0. -1.
</event>
<event>
 4 661  0.7533903E-01  0.9118800E+02  0.7818608E-02  0.1300000E+00
       21   -1    0    0  502  503  0.00000000000E+00  0.00000000000E+00  0.77087947107E+02  0.77087947107E+02  0.00000000000E+00 0.  1.
       21   -1    0    0  501  502  0.00000000000E+00  0.00000000000E+00 -0.70088276176E+03  0.70088276176E+03  0.00000000000E+00 0.  1.
        6    1    1    2  501    0  0.29368008721E+02 -0.96566456917E+02 -0.50605977546E+03  0.54466920868E+03  0.17430000000E+03 0.  1.
       -6    1    1    2    0  503 -0.29368008721E+02  0.96566456917E+02 -0.11773503919E+03  0.23330150019E+03  0.17430000000E+03 0.  1.
</event>
<event>
 4 661  0.7533903E-01  0.9118800E+02  0.7818608E-02  0.1300000E+00
       21   -1    0    0  501  502  0.00000000000E+00  0.00000000000E+00  0.27636007808E+03  0.27636007808E+03  0.00000000000E+00 0. -1.
       21   -1    0    0  502  503  0.00000000000E+00  0.00000000000E+00 -0.15245047002E+03  0.15245047002E+03  0.00000000000E+00 0. -1.
        6    1    1    2  501    0 -0.39654993951E+02 -0.98537601544E+02  0.39344087081E+02  0.20787165428E+03  0.17430000000E+03 0. -1.
       -6    1    1    2    0  503  0.39654993951E+02  0.98537601544E+02  0.84565520982E+02  0.22093889382E+03  0.17430000000E+03 0. -1.
</event>
<event>
 4 661  0.7533903E-01  0.9118800E+02  0.7818608E-02  0.1300000E+00
       -2   -1    0    0    0  502  0.00000000000E+00  0.00000000000E+00  0.64326574160E+03  0.64326574160E+03  0.00000000000E+00 0.  1.
        2   -1    0    0  501    0  0.00000000000E+00  0.00000000000E+00 -0.70708273170E+02  0.70708273170E+02  0.00000000000E+00 0. -1.
        6    1    1    2  501    0 -0.13459825223E+02  0.31220108245E+02  0.48396469945E+03  0.51551739288E+03  0.17430000000E+03 0.  1.
       -6    1    1    2    0  502  0.13459825223E+02 -0.31220108245E+02  0.88592768979E+02  0.19845662188E+03  0.17430000000E+03 0. -1.
</event>
<event>
 4 661  0.7533903E-01  0.9118800E+02  0.7818608E-02  0.1300000E+00
       21   -1    0    0  502  503  0.00000000000E+00  0.00000000000E+00  0.11150163182E+03  0.11150163182E+03  0.00000000000E+00 0. -1.
       21   -1    0    0  501  502  0.00000000000E+00  0.00000000000E+00 -0.58592355425E+03  0.58592355425E+03  0.00000000000E+00 0. -1.
        6    1    1    2  501    0  0.10041502449E+03 -0.10899628129E+03 -0.39268955037E+03  0.45447655545E+03  0.17430000000E+03 0.  1.
       -6    1    1    2    0  503 -0.10041502449E+03  0.10899628129E+03 -0.81732372061E+02  0.24294863062E+03  0.17430000000E+03 0.  1.
</event>
<event>
 4 661  0.7533903E-01  0.9118800E+02  0.7818608E-02  0.1300000E+00
       21   -1    0    0  501  502  0.00000000000E+00  0.00000000000E+00  0.34576581423E+03  0.34576581423E+03  0.00000000000E+00 0. -1.
       21   -1    0    0  502  503  0.00000000000E+00  0.00000000000E+00 -0.14630055572E+03  0.14630055572E+03  0.00000000000E+00 0. -1.
        6    1    1    2  501    0 -0.85458135451E+02 -0.47453193577E+02  0.21262418477E+03  0.29179518921E+03  0.17430000000E+03 0. -1.
       -6    1    1    2    0  503  0.85458135451E+02  0.47453193577E+02 -0.13158926263E+02  0.20027118074E+03  0.17430000000E+03 0. -1.
</event>
<event>
 4 661  0.7533903E-01  0.9118800E+02  0.7818608E-02  0.1300000E+00
       21   -1    0    0  501  502  0.00000000000E+00  0.00000000000E+00  0.19654575853E+03  0.19654575853E+03  0.00000000000E+00 0. -1.
       21   -1    0    0  502  503  0.00000000000E+00  0.00000000000E+00 -0.39812462341E+03  0.39812462341E+03  0.00000000000E+00 0. -1.
        6    1    1    2  501    0  0.13910551751E+03  0.60927999551E+02  0.66623504276E+02  0.24058625782E+03  0.17430000000E+03 0. -1.
       -6    1    1    2    0  503 -0.13910551751E+03 -0.60927999551E+02 -0.26820236916E+03  0.35408412412E+03  0.17430000000E+03 0. -1.
</event>
<event>
 4 661  0.7533903E-01  0.9118800E+02  0.7818608E-02  0.1300000E+00
       21   -1    0    0  502  503  0.00000000000E+00  0.00000000000E+00  0.47962194174E+03  0.47962194174E+03  0.00000000000E+00 0.  1.
       21   -1    0    0  501  502  0.00000000000E+00  0.00000000000E+00 -0.19644564640E+03  0.19644564640E+03  0.00000000000E+00 0.  1.
        6    1    1    2  501    0  0.12696840045E+03  0.10831136541E+03 -0.67322783525E+02  0.25052978620E+03  0.17430000000E+03 0.  1.
       -6    1    1    2    0  503 -0.12696840045E+03 -0.10831136541E+03  0.35049907887E+03  0.42553780194E+03  0.17430000000E+03 0.  1.
</event>
<event>
 4 661  0.7533903E-01  0.9118800E+02  0.7818608E-02  0.1300000E+00
       21   -1    0    0  501  502  0.00000000000E+00  0.00000000000E+00  0.86413961306E+02  0.86413961306E+02  0.00000000000E+00 0.  1.
       21   -1    0    0  502  503  0.00000000000E+00  0.00000000000E+00 -0.38271158704E+03  0.38271158704E+03  0.00000000000E+00 0.  1.
        6    1    1    2  501    0  0.33513037593E+02  0.73029687105E+01 -0.97950239406E+02  0.20285757674E+03  0.17430000000E+03 0.  1.
       -6    1    1    2    0  503 -0.33513037593E+02 -0.73029687105E+01 -0.19834738633E+03  0.26626797161E+03  0.17430000000E+03 0.  1.
</event>
<event>
 4 661  0.7533903E-01  0.9118800E+02  0.7818608E-02  0.1300000E+00
       21   -1    0    0  502  503  0.00000000000E+00  0.00000000000E+00  0.19485377977E+03  0.19485377977E+03  0.00000000000E+00 0. -1.
       21   -1    0    0  501  502  0.00000000000E+00  0.00000000000E+00 -0.37051131987E+03  0.37051131987E+03  0.00000000000E+00 0. -1.
        6    1    1    2  501    0  0.11712056203E+03 -0.84083030325E+02 -0.24038901283E+03  0.33008264045E+03  0.17430000000E+03 0. -1.
       -6    1    1    2    0  503 -0.11712056203E+03  0.84083030325E+02  0.64731472734E+02  0.23528245919E+03  0.17430000000E+03 0. -1.
</event>
<event>
 4 661  0.7533903E-01  0.9118800E+02  0.7818608E-02  0.1300000E+00
       21   -1    0    0  501  502  0.00000000000E+00  0.00000000000E+00  0.10899744459E+03  0.10899744459E+03  0.00000000000E+00 0. -1.
       21   -1    0    0  502  503  0.00000000000E+00  0.00000000000E+00 -0.72894901881E+03  0.72894901881E+03  0.00000000000E+00 0.  1.
        6    1    1    2  501    0 -0.26218400851E+02  0.11362220988E+03 -0.30016486428E+02  0.21184638439E+03  0.17430000000E+03 0. -1.
       -6    1    1    2    0  503  0.26218400851E+02 -0.11362220988E+03 -0.58993508779E+03  0.62610007900E+03  0.17430000000E+03 0.  1.
</event>
<event>
 4 661  0.7533903E-01  0.9118800E+02  0.7818608E-02  0.1300000E+00
       21   -1    0    0  501  502  0.00000000000E+00  0.00000000000E+00  0.48449376713E+03  0.48449376713E+03  0.00000000000E+00 0. -1.
       21   -1    0    0  502  503  0.00000000000E+00  0.00000000000E+00 -0.13762065098E+03  0.13762065098E+03  0.00000000000E+00 0.  1.
        6    1    1    2  501    0  0.10739748921E+02  0.11149496544E+03  0.35908041478E+03  0.41456688701E+03  0.17430000000E+03 0. -1.
       -6    1    1    2    0  503 -0.10739748921E+02 -0.11149496544E+03 -0.12207298626E+02  0.20754753110E+03  0.17430000000E+03 0.  1.
</event>
<event>
 4 661  0.7533903E-01  0.9118800E+02  0.7818608E-02  0.1300000E+00
       -1   -1    0    0    0  502  0.00000000000E+00  0.00000000000E+00  0.19870583415E+03  0.19870583415E+03  0.00000000000E+00 0. -1.
        1   -1    0    0  501    0  0.00000000000E+00  0.00000000000E+00 -0.33364410736E+03  0.33364410736E+03  0.00000000000E+00 0.  1.
        6    1    1    2  501    0 -0.34806611645E+02  0.14854070212E+03 -0.18369579267E+03  0.29563571273E+03  0.17430000000E+03 0.  1.
       -6    1    1    2    0  502  0.34806611645E+02 -0.14854070212E+03  0.48757519451E+02  0.23671422877E+03  0.17430000000E+03 0. -1.
</event>
<event>
 4 661  0.7533903E-01  0.9118800E+02  0.7818608E-02  0.1300000E+00
       21   -1    0    0  502  503  0.00000000000E+00  0.00000000000E+00  0.72366158797E+03  0.72366158797E+03  0.00000000000E+00 0. -1.
       21   -1    0    0  501  502  0.00000000000E+00  0.00000000000E+00 -0.93124381380E+02  0.93124381380E+02  0.00000000000E+00 0.  1.
        6    1    1    2  501    0 -0.76481122417E+02 -0.45675600111E+02  0.47021907584E+02  0.20131361684E+03  0.17430000000E+03 0.  1.
       -6    1    1    2    0  503  0.76481122417E+02  0.45675600111E+02  0.58351529900E+03  0.61547235251E+03  0.17430000000E+03 0. -1.
</event>
<event>
 4 661  0.7533903E-01  0.9118800E+02  0.7818608E-02  0.1300000E+00
       21   -1    0    0  501  502  0.00000000000E+00  0.00000000000E+00  0.16388314570E+03  0.16388314570E+03  0.00000000000E+00 0.  1.
       21   -1    0    0  502  503  0.00000000000E+00  0.00000000000E+00 -0.22489532226E+03  0.22489532226E+03  0.00000000000E+00 0.  1.
        6    1    1    2  501    0  0.74091582018E+01 -0.16871075892E+02  0.48812764677E+02  0.18194148736E+03  0.17430000000E+03 0.  1.
       -6    1    1    2    0  503 -0.74091582018E+01  0.16871075892E+02 -0.10982494124E+03  0.20683698060E+03  0.17430000000E+03 0.  1.
</event>
<event>
 4 661  0.7533903E-01  0.9118800E+02  0.7818608E-02  0.1300000E+00
       21   -1    0    0  501  502  0.00000000000E+00  0.00000000000E+00  0.44191177274E+03  0.44191177274E+03  0.00000000000E+00 0. -1.
       21   -1    0    0  502  503  0.00000000000E+00  0.00000000000E+00 -0.22517228310E+03  0.22517228310E+03  0.00000000000E+00 0.  1.
        6    1    1    2  501    0  0.66238602519E+02 -0.15668032494E+03  0.32034330896E+03  0.40241347179E+03  0.17430000000E+03 0. -1.
       -6    1    1    2    0  503 -0.66238602519E+02  0.15668032494E+03 -0.10360381931E+03  0.26467058405E+03  0.17430000000E+03 0.  1.
</event>
<event>
 4 661  0.7533903E-01  0.9118800E+02  0.7818608E-02  0.1300000E+00
       -4   -1    0    0    0  502  0.00000000000E+00  0.00000000000E+00  0.36423613233E+03  0.36423613233E+03  0.00000000000E+00 0.  1.
        4   -1    0    0  501    0  0.00000000000E+00  0.00000000000E+00 -0.12866125690E+03  0.12866125690E+03  0.00000000000E+00 0. -1.
        6    1    1    2  501    0 -0.60057840702E+02  0.13086857785E+02  0.24610551005E+03  0.30777690321E+03  0.17430000000E+03 0.  1.
       -6    1    1    2    0  502  0.60057840702E+02 -0.13086857785E+02 -0.10530634616E+02  0.18512048601E+03  0.17430000000E+03 0. -1.
</event>
<event>
 4 661  0.7533903E-01  0.9118800E+02  0.7818608E-02  0.1300000E+00
       21   -1    0    0  501  502  0.00000000000E+00  0.00000000000E+00  0.85346105642E+03  0.85346105642E+03  0.00000000000E+00 0. -1.
       21   -1    0    0  502  503  0.00000000000E+00  0.00000000000E+00 -0.82237187814E+02  0.82237187814E+02  0.00000000000E+00 0.  1.
        6    1    1    2  501    0  0.75550136608E+02 -0.73395076025E+01  0.71144899924E+03  0.73641147467E+03  0.17430000000E+03 0. -1.
       -6    1    1    2    0  503 -0.75550136608E+02  0.73395076025E+01  0.59774869364E+02  0.19928676956E+03  0.17430000000E+03 0.  1.
</event>
<event>
 4 661  0.7533903E-01  0.9118800E+02  0.7818608E-02  0.1300000E+00
       21   -1    0    0  501  502  0.00000000000E+00  0.00000000000E+00  0.12251818609E+03  0.12251818609E+03  0.00000000000E+00 0.  1.
       21   -1    0    0  502  503  0.00000000000E+00  0.00000000000E+00 -0.59391656178E+03  0.59391656178E+03  0.00000000000E+00 0. -1.
        6    1    1    2  501    0 -0.47331475823E+02 -0.40579120990E+02  0.24858333123E+02  0.18677623079E+03  0.17430000000E+03 0.  1.
       -6    1    1    2    0  503  0.47331475823E+02  0.40579120990E+02 -0.49625670882E+03  0.52965851708E+03  0.17430000000E+03 0. -1.
</event>
<event>
 4 661  0.7533903E-01  0.9118800E+02  0.7818608E-02  0.1300000E+00
       21   -1    0    0  501  502  0.00000000000E+00  0.00000000000E+00  0.21562218249E+03  0.21562218249E+03  0.00000000000E+00 0.  1.
       21   -1    0    0  502  503  0.00000000000E+00  0.00000000000E+00 -0.33948551080E+03  0.33948551080E+03  0.00000000000E+00 0.  1.
        6    1    1    2  501    0 -0.10029306264E+03 -0.17682819593E+03 -0.10157315580E+03  0.28639920612E+03  0.17430000000E+03 0.  1.
       -6    1    1    2    0  503  0.10029306264E+03  0.17682819593E+03 -0.22290172508E+02  0.26870848717E+03  0.17430000000E+03 0.  1.
</event>
<event>
 4 661  0.7533903E-01  0.9118800E+02  0.7818608E-02  0.1300000E+00
       21   -1    0    0  502  503  0.00000000000E+00  0.00000000000E+00  0.62272047641E+03  0.62272047641E+03  0.00000000000E+00 0.  1.
       21   -1    0    0  501  502  0.00000000000E+00  0.00000000000E+00 -0.90450048913E+02  0.90450048913E+02  0.00000000000E+00 0.  1.
        6    1    1    2  501    0  0.13293176159E+00  0.59141057822E+02  0.41027258438E+02  0.18857732718E+03  0.17430000000E+03 0.  1.
       -6    1    1    2    0  503 -0.13293176159E+00 -0.59141057822E+02  0.49124316906E+03  0.52459319814E+03  0.17430000000E+03 0.  1.
</event>
<event>
 4 661  0.7533903E-01  0.9118800E+02  0.7818608E-02  0.1300000E+00
       -1   -1    0    0    0  502  0.00000000000E+00  0.00000000000E+00  0.18846521914E+03  0.18846521914E+03  0.00000000000E+00 0. -1.
        1   -1    0    0  501    0  0.00000000000E+00  0.00000000000E+00 -0.74721067147E+03  0.74721067147E+03  0.00000000000E+00 0.  1.
        6    1    1    2  501    0 -0.69126604476E+01  0.66674595784E+02 -0.68516862131E+03  0.71016182397E+03  0.17430000000E+03 0.  1.
       -6    1    1    2    0  502  0.69126604476E+01 -0.66674595784E+02  0.12642316898E+03  0.22551406664E+03  0.17430000000E+03 0. -1.
</event>
<event>
 4 661  0.7533903E-01  0.9118800E+02  0.7818608E-02  0.1300000E+00
       21   -1    0    0  502  503  0.00000000000E+00  0.00000000000E+00  0.17314793086E+03  0.17314793086E+03  0.00000000000E+00 0.  1.
       21   -1    0    0  501  502  0.00000000000E+00  0.00000000000E+00 -0.69152159560E+03  0.69152159560E+03  0.00000000000E+00 0. -1.
        6    1    1    2  501    0  0.21466569858E+03  0.39020420988E+02 -0.51448196212E+03  0.58538545827E+03  0.17430000000E+03 0. -1.
       -6    1    1    2    0  503 -0.21466569858E+03 -0.39020420988E+02 -0.38917026172E+01  0.27928406820E+03  0.17430000000E+03 0.  1.
</event>
<event>
 4 661  0.7533903E-01  0.9118800E+02  0.7818608E-02  0.1300000E+00
       -1   -1    0    0    0  502  0.00000000000E+00  0.00000000000E+00  0.74534891332E+02  0.74534891332E+02  0.00000000000E+00 0. -1.
        1   -1    0    0  501    0  0.00000000000E+00  0.00000000000E+00 -0.54080241058E+03  0.54080241058E+03  0.00000000000E+00 0.  1.
        6    1    1    2  501    0 -0.23138800492E+00  0.76776149463E+02 -0.13580825203E+03  0.23392093106E+03  0.17430000000E+03 0. -1.
       -6    1    1    2    0  502  0.23138800492E+00 -0.76776149463E+02 -0.33045926722E+03  0.38141637086E+03  0.17430000000E+03 0.  1.
</event>
<event>
 4 661  0.7533903E-01  0.9118800E+02  0.7818608E-02  0.1300000E+00
       21   -1    0    0  501  502  0.00000000000E+00  0.00000000000E+00  0.11582876925E+03  0.11582876925E+03  0.00000000000E+00 0. -1.
       21   -1    0    0  502  503  0.00000000000E+00  0.00000000000E+00 -0.36262953583E+03  0.36262953583E+03  0.00000000000E+00 0.  1.
        6    1    1    2  501    0 -0.83642854971E+02 -0.67837891742E+02 -0.12915875454E+03  0.24219946453E+03  0.17430000000E+03 0.  1.
       -6    1    1    2    0  503  0.83642854971E+02  0.67837891742E+02 -0.11764201203E+03  0.23625884055E+03  0.17430000000E+03 0.  1.
</event>
<event>
 4 661  0.7533903E-01  0.9118800E+02  0.7818608E-02  0.1300000E+00
       21   -1    0    0  501  502  0.00000000000E+00  0.00000000000E+00  0.61393356472E+03  0.61393356472E+03  0.00000000000E+00 0.  1.
       21   -1    0    0  502  503  0.00000000000E+00  0.00000000000E+00 -0.97057620034E+02  0.97057620034E+02  0.00000000000E+00 0. -1.
        6    1    1    2  501    0  0.98337913628E+01  0.15925792887E+03  0.34757953316E+03  0.42029967075E+03  0.17430000000E+03 0.  1.
       -6    1    1    2    0  503 -0.98337913628E+01 -0.15925792887E+03  0.16929641153E+03  0.29069151401E+03  0.17430000000E+03 0. -1.
</event>
<event>
 4 661  0.7533903E-01  0.9118800E+02  0.7818608E-02  0.1300000E+00
       21   -1    0    0  502  503  0.00000000000E+00  0.00000000000E+00  0.31688661557E+03  0.31688661557E+03  0.00000000000E+00 0. -1.
       21   -1    0    0  501  502  0.00000000000E+00  0.00000000000E+00 -0.14615013196E+03  0.14615013196E+03  0.00000000000E+00 0. -1.
        6    1    1    2  501    0  0.73153537698E+02 -0.44030695725E+02 -0.14643456065E+02  0.19464085658E+03  0.17430000000E+03 0.  1.
       -6    1    1    2    0  503 -0.73153537698E+02  0.44030695725E+02  0.18537993968E+03  0.26839589095E+03  0.17430000000E+03 0.  1.
</event>
<event>
 4 661  0.7533903E-01  0.9118800E+02  0.7818608E-02  0.1300000E+00
        1   -1    0    0  501    0  0.00000000000E+00  0.00000000000E+00  0.26146990737E+04  0.26146990737E+04  0.00000000000E+00 0.  1.
       -1   -1    0    0    0  502  0.00000000000E+00  0.00000000000E+00 -0.29650551318E+02  0.29650551318E+02  0.00000000000E+00 0. -1.
        6    1    1    2  501    0  0.13529295657E+03 -0.10080287176E+02  0.20975549634E+04  0.21091522256E+04  0.17430000000E+03 0.  1.
       -6    1    1    2    0  502 -0.13529295657E+03  0.10080287176E+02  0.48749355893E+03  0.53519739936E+03  0.17430000000E+03 0. -1.
</event>
<event>
 4 661  0.7533903E-01  0.9118800E+02  0.7818608E-02  0.1300000E+00
       21   -1    0    0  502  503  0.00000000000E+00  0.00000000000E+00  0.76035432291E+02  0.76035432291E+02  0.00000000000E+00 0.  1.
       21   -1    0    0  501  502  0.00000000000E+00  0.00000000000E+00 -0.52297631205E+03  0.52297631205E+03  0.00000000000E+00 0. -1.
        6    1    1    2  501    0 -0.72168591127E+02 -0.64619040462E+02 -0.22262877130E+03  0.29887787765E+03  0.17430000000E+03 0.  1.
       -6    1    1    2    0  503  0.72168591127E+02  0.64619040462E+02 -0.22431210845E+03  0.30013386669E+03  0.17430000000E+03 0. -1.
</event>
<event>
 4 661  0.7533903E-01  0.9118800E+02  0.7818608E-02  0.1300000E+00
       21   -1    0    0  502  503  0.00000000000E+00  0.00000000000E+00  0.23999385595E+03  0.23999385595E+03  0.00000000000E+00 0.  1.
       21   -1    0    0  501  502  0.00000000000E+00  0.00000000000E+00 -0.14615799718E+03  0.14615799718E+03  0.00000000000E+00 0. -1.
        6    1    1    2  501    0 -0.17872985055E+02  0.66147587671E+02  0.45620316061E+02  0.19276060331E+03  0.17430000000E+03 0.  1.
       -6    1    1    2    0  503  0.17872985055E+02 -0.66147587671E+02  0.48215542708E+02  0.19339124982E+03  0.17430000000E+03 0.  1.
</event>
<event>
 4 661  0.7533903E-01  0.9118800E+02  0.7818608E-02  0.1300000E+00
       21   -1    0    0  501  502  0.00000000000E+00  0.00000000000E+00  0.27897867765E+03  0.27897867765E+03  0.00000000000E+00 0.  1.
       21   -1    0    0  502  503  0.00000000000E+00  0.00000000000E+00 -0.14435044158E+03  0.14435044158E+03  0.00000000000E+00 0.  1.
        6    1    1    2  501    0  0.67604671286E+02 -0.24320795466E+02  0.13984228067E+03  0.23473015600E+03  0.17430000000E+03 0.  1.
       -6    1    1    2    0  503 -0.67604671286E+02  0.24320795466E+02 -0.52140445953E+01  0.18859896323E+03  0.17430000000E+03 0.  1.
</event>
<event>
 4 661  0.7533903E-01  0.9118800E+02  0.7818608E-02  0.1300000E+00
       21   -1    0    0  501  502  0.00000000000E+00  0.00000000000E+00  0.70593560247E+03  0.70593560247E+03  0.00000000000E+00 0.  1.
       21   -1    0    0  502  503  0.00000000000E+00  0.00000000000E+00 -0.99367650087E+02  0.99367650087E+02  0.00000000000E+00 0.  1.
        6    1    1    2  501    0  0.19790111227E+03 -0.23334623190E+02  0.31479373796E+03  0.41132097240E+03  0.17430000000E+03 0.  1.
       -6    1    1    2    0  503 -0.19790111227E+03  0.23334623190E+02  0.29177421442E+03  0.39398228016E+03  0.17430000000E+03 0.  1.
</event>
<event>
 4 661  0.7533903E-01  0.9118800E+02  0.7818608E-02  0.1300000E+00
       21   -1    0    0  501  502  0.00000000000E+00  0.00000000000E+00  0.20279822203E+03  0.20279822203E+03  0.00000000000E+00 0.  1.
       21   -1    0    0  502  503  0.00000000000E+00  0.00000000000E+00 -0.18485110085E+03  0.18485110085E+03  0.00000000000E+00 0.  1.
        6    1    1    2  501    0  0.82884685620E+02  0.40591460932E+01 -0.58962326827E+01  0.19313623000E+03  0.17430000000E+03 0.  1.
       -6    1    1    2    0  503 -0.82884685620E+02 -0.40591460932E+01  0.23843353861E+02  0.19451309288E+03  0.17430000000E+03 0.  1.
</event>
<event>
 4 661  0.7533903E-01  0.9118800E+02  0.7818608E-02  0.1300000E+00
        1   -1    0    0  501    0  0.00000000000E+00  0.00000000000E+00  0.10198290465E+04  0.10198290465E+04  0.00000000000E+00 0.  1.
       -1   -1    0    0    0  502  0.00000000000E+00  0.00000000000E+00 -0.21208402749E+03  0.21208402749E+03  0.00000000000E+00 0. -1.
        6    1    1    2  501    0 -0.35312124532E+03 -0.14632919348E+03  0.13964047250E+03  0.44270396239E+03  0.17430000000E+03 0. -1.
       -6    1    1    2    0  502  0.35312124532E+03  0.14632919348E+03  0.66810454652E+03  0.78920911160E+03  0.17430000000E+03 0.  1.
</event>
<event>
 4 661  0.7533903E-01  0.9118800E+02  0.7818608E-02  0.1300000E+00
        2   -1    0    0  501    0  0.00000000000E+00  0.00000000000E+00  0.48595497115E+03  0.48595497115E+03  0.00000000000E+00 0. -1.
       -2   -1    0    0    0  502  0.00000000000E+00  0.00000000000E+00 -0.11169431070E+03  0.11169431070E+03  0.00000000000E+00 0.  1.
        6    1    1    2  501    0  0.10297703921E+03  0.47764268588E+02  0.52531806452E+02  0.21453618960E+03  0.17430000000E+03 0.  1.
       -6    1    1    2    0  502 -0.10297703921E+03 -0.47764268588E+02  0.32172885400E+03  0.38311309225E+03  0.17430000000E+03 0. -1.
</event>
<event>
 4 661  0.7533903E-01  0.9118800E+02  0.7818608E-02  0.1300000E+00
       21   -1    0    0  501  502  0.00000000000E+00  0.00000000000E+00  0.21702698624E+03  0.21702698624E+03  0.00000000000E+00 0.  1.
       21   -1    0    0  502  503  0.00000000000E+00  0.00000000000E+00 -0.18838179606E+03  0.18838179606E+03  0.00000000000E+00 0.  1.
        6    1    1    2  501    0  0.55605343478E+01 -0.11903062178E+02  0.11621801417E+03  0.20990407154E+03  0.17430000000E+03 0.  1.
       -6    1    1    2    0  503 -0.55605343478E+01  0.11903062178E+02 -0.87572823985E+02  0.19550471077E+03  0.17430000000E+03 0.  1.
</event>
<event>
 4 661  0.7533903E-01  0.9118800E+02  0.7818608E-02  0.1300000E+00
       21   -1    0    0  502  503  0.00000000000E+00  0.00000000000E+00  0.34167831908E+03  0.34167831908E+03  0.00000000000E+00 0. -1.
       21   -1    0    0  501  502  0.00000000000E+00  0.00000000000E+00 -0.18902786723E+03  0.18902786723E+03  0.00000000000E+00 0.  1.
        6    1    1    2  501    0  0.81266200564E+02 -0.37957353018E+02 -0.92556245301E+02  0.21677662362E+03  0.17430000000E+03 0.  1.
       -6    1    1    2    0  503 -0.81266200564E+02  0.37957353018E+02  0.24520669715E+03  0.31392956269E+03  0.17430000000E+03 0. -1.
</event>
<event>
 4 661  0.7533903E-01  0.9118800E+02  0.7818608E-02  0.1300000E+00
       21   -1    0    0  501  502  0.00000000000E+00  0.00000000000E+00  0.22508732917E+02  0.22508732917E+02  0.00000000000E+00 0. -1.
       21   -1    0    0  502  503  0.00000000000E+00  0.00000000000E+00 -0.18560967358E+04  0.18560967358E+04  0.00000000000E+00 0. -1.
        6    1    1    2  501    0  0.72637299436E+02 -0.75674810754E+02 -0.10081319152E+04  0.10284518961E+04  0.17430000000E+03 0. -1.
       -6    1    1    2    0  503 -0.72637299436E+02  0.75674810754E+02 -0.82545608768E+03  0.85015357256E+03  0.17430000000E+03 0. -1.
</event>
<event>
 4 661  0.7533903E-01  0.9118800E+02  0.7818608E-02  0.1300000E+00
       21   -1    0    0  501  502  0.00000000000E+00  0.00000000000E+00  0.12220173406E+03  0.12220173406E+03  0.00000000000E+00 0. -1.
       21   -1    0    0  502  503  0.00000000000E+00  0.00000000000E+00 -0.70808347883E+03  0.70808347883E+03  0.00000000000E+00 0.  1.
        6    1    1    2  501    0  0.11276195874E+03 -0.17421701211E+03 -0.13152408859E+03  0.30124060571E+03  0.17430000000E+03 0. -1.
       -6    1    1    2    0  503 -0.11276195874E+03  0.17421701211E+03 -0.45435765618E+03  0.52904460718E+03  0.17430000000E+03 0.  1.
</event>
<event>
 4 661  0.7533903E-01  0.9118800E+02  0.7818608E-02  0.1300000E+00
       21   -1    0    0  502  503  0.00000000000E+00  0.00000000000E+00  0.15096805821E+03  0.15096805821E+03  0.00000000000E+00 0.  1.
       21   -1    0    0  501  502  0.00000000000E+00  0.00000000000E+00 -0.32267618608E+03  0.32267618608E+03  0.00000000000E+00 0.  1.
        6    1    1    2  501    0  0.14594131151E+02  0.95950482852E+02 -0.18715845951E+03  0.27354755124E+03  0.17430000000E+03 0. -1.
       -6    1    1    2    0  503 -0.14594131151E+02 -0.95950482852E+02  0.15450331634E+02  0.20009669305E+03  0.17430000000E+03 0. -1.
</event>
<event>
 4 661  0.7533903E-01  0.9118800E+02  0.7818608E-02  0.1300000E+00
       21   -1    0    0  502  503  0.00000000000E+00  0.00000000000E+00  0.23165248143E+03  0.23165248143E+03  0.00000000000E+00 0. -1.
       21   -1    0    0  501  502  0.00000000000E+00  0.00000000000E+00 -0.52309616477E+03  0.52309616477E+03  0.00000000000E+00 0. -1.
        6    1    1    2  501    0  0.72682419465E+02 -0.34356137620E+02 -0.46054144196E+03  0.49894086629E+03  0.17430000000E+03 0. -1.
       -6    1    1    2    0  503 -0.72682419465E+02  0.34356137620E+02  0.16909775862E+03  0.25580777991E+03  0.17430000000E+03 0. -1.
</event>
<event>
 4 661  0.7533903E-01  0.9118800E+02  0.7818608E-02  0.1300000E+00
       21   -1    0    0  501  502  0.00000000000E+00  0.00000000000E+00  0.54686573264E+02  0.54686573264E+02  0.00000000000E+00 0.  1.
       21   -1    0    0  502  503  0.00000000000E+00  0.00000000000E+00 -0.12569279688E+04  0.12569279688E+04  0.00000000000E+00 0.  1.
        6    1    1    2  501    0 -0.49159226503E+02 -0.12065782694E+03 -0.23535639932E+03  0.32054339090E+03  0.17430000000E+03 0.  1.
       -6    1    1    2    0  503  0.49159226503E+02  0.12065782694E+03 -0.96688499620E+03  0.99107115114E+03  0.17430000000E+03 0.  1.
</event>
<event>
 4 661  0.7533903E-01  0.9118800E+02  0.7818608E-02  0.1300000E+00
       21   -1    0    0  501  502  0.00000000000E+00  0.00000000000E+00  0.55233659596E+02  0.55233659596E+02  0.00000000000E+00 0.  1.
       21   -1    0    0  502  503  0.00000000000E+00  0.00000000000E+00 -0.65578369020E+03  0.65578369020E+03  0.00000000000E+00 0.  1.
        6    1    1    2  501    0 -0.27883017521E+02 -0.59106221294E+02 -0.22626423239E+03  0.29299658858E+03  0.17430000000E+03 0. -1.
       -6    1    1    2    0  503  0.27883017521E+02  0.59106221294E+02 -0.37428579822E+03  0.41802076122E+03  0.17430000000E+03 0. -1.
</event>
<event>
 4 661  0.7533903E-01  0.9118800E+02  0.7818608E-02  0.1300000E+00
       21   -1    0    0  501  502  0.00000000000E+00  0.00000000000E+00  0.20841162883E+03  0.20841162883E+03  0.00000000000E+00 0.  1.
       21   -1    0    0  502  503  0.00000000000E+00  0.00000000000E+00 -0.20288774135E+03  0.20288774135E+03  0.00000000000E+00 0.  1.
        6    1    1    2  501    0  0.50635437260E+02  0.59272291232E+02 -0.73576603359E+02  0.20462443299E+03  0.17430000000E+03 0.  1.
       -6    1    1    2    0  503 -0.50635437260E+02 -0.59272291232E+02  0.79100490835E+02  0.20667493720E+03  0.17430000000E+03 0.  1.
</event>
<event>
 4 661  0.7533903E-01  0.9118800E+02  0.7818608E-02  0.1300000E+00
       21   -1    0    0  502  503  0.00000000000E+00  0.00000000000E+00  0.68498362829E+03  0.68498362829E+03  0.00000000000E+00 0.  1.
       21   -1    0    0  501  502  0.00000000000E+00  0.00000000000E+00 -0.74708967002E+02  0.74708967002E+02  0.00000000000E+00 0.  1.
        6    1    1    2  501    0  0.39748490601E+02 -0.83814144149E+02  0.11975488364E+03  0.23092525938E+03  0.17430000000E+03 0. -1.
       -6    1    1    2    0  503 -0.39748490601E+02  0.83814144149E+02  0.49051977764E+03  0.52876733591E+03  0.17430000000E+03 0. -1.
</event>
<event>
 4 661  0.7533903E-01  0.9118800E+02  0.7818608E-02  0.1300000E+00
       21   -1    0    0  501  502  0.00000000000E+00  0.00000000000E+00  0.34128005382E+03  0.34128005382E+03  0.00000000000E+00 0. -1.
       21   -1    0    0  502  503  0.00000000000E+00  0.00000000000E+00 -0.97334990381E+02  0.97334990381E+02  0.00000000000E+00 0. -1.
        6    1    1    2  501    0 -0.29000497674E+02 -0.57273646857E+01  0.68644810488E+02  0.18964817842E+03  0.17430000000E+03 0. -1.
       -6    1    1    2    0  503  0.29000497674E+02  0.57273646857E+01  0.17530025295E+03  0.24896686578E+03  0.17430000000E+03 0. -1.
</event>
<event>
 4 661  0.7533903E-01  0.9118800E+02  0.7818608E-02  0.1300000E+00
        2   -1    0    0  501    0  0.00000000000E+00  0.00000000000E+00  0.36385640180E+03  0.36385640180E+03  0.00000000000E+00 0.  1.
       -2   -1    0    0    0  502  0.00000000000E+00  0.00000000000E+00 -0.88054993512E+02  0.88054993512E+02  0.00000000000E+00 0. -1.
        6    1    1    2  501    0 -0.28821631212E+02  0.13429520148E+02  0.10577025958E+03  0.20634649560E+03  0.17430000000E+03 0. -1.
       -6    1    1    2    0  502  0.28821631212E+02 -0.13429520148E+02  0.17003114871E+03  0.24556489971E+03  0.17430000000E+03 0.  1.
</event>
<event>
 4 661  0.7533903E-01  0.9118800E+02  0.7818608E-02  0.1300000E+00
       21   -1    0    0  501  502  0.00000000000E+00  0.00000000000E+00  0.31266807294E+03  0.31266807294E+03  0.00000000000E+00 0. -1.
       21   -1    0    0  502  503  0.00000000000E+00  0.00000000000E+00 -0.41274734832E+03  0.41274734832E+03  0.00000000000E+00 0. -1.
        6    1    1    2  501    0  0.12131214358E+02 -0.97184697516E+02  0.25130533027E+03  0.32113375845E+03  0.17430000000E+03 0. -1.
       -6    1    1    2    0  503 -0.12131214358E+02  0.97184697516E+02 -0.35138460566E+03  0.40428166281E+03  0.17430000000E+03 0. -1.
</event>
<event>
 4 661  0.7533903E-01  0.9118800E+02  0.7818608E-02  0.1300000E+00
       21   -1    0    0  501  502  0.00000000000E+00  0.00000000000E+00  0.45504939789E+02  0.45504939789E+02  0.00000000000E+00 0.  1.
       21   -1    0    0  502  503  0.00000000000E+00  0.00000000000E+00 -0.98141257225E+03  0.98141257225E+03  0.00000000000E+00 0.  1.
        6    1    1    2  501    0 -0.83143156894E+02 -0.67814074479E+02 -0.59576317549E+03  0.62994109606E+03  0.17430000000E+03 0.  1.
       -6    1    1    2    0  503  0.83143156894E+02  0.67814074479E+02 -0.34014445697E+03  0.39697641598E+03  0.17430000000E+03 0.  1.
</event>
<event>
 4 661  0.7533903E-01  0.9118800E+02  0.7818608E-02  0.1300000E+00
       21   -1    0    0  502  503  0.00000000000E+00  0.00000000000E+00  0.69127614113E+02  0.69127614113E+02  0.00000000000E+00 0.  1.
       21   -1    0    0  501  502  0.00000000000E+00  0.00000000000E+00 -0.30736720166E+04  0.30736720166E+04  0.00000000000E+00 0. -1.
        6    1    1    2  501    0 -0.11259074775E+03  0.27263645274E+02 -0.29023678059E+04  0.29099036674E+04  0.17430000000E+03 0. -1.
       -6    1    1    2    0  503  0.11259074775E+03 -0.27263645274E+02 -0.10217659657E+03  0.23289596330E+03  0.17430000000E+03 0.  1.
</event>
<event>
 4 661  0.7533903E-01  0.9118800E+02  0.7818608E-02  0.1300000E+00
       21   -1    0    0  502  503  0.00000000000E+00  0.00000000000E+00  0.22319170984E+03  0.22319170984E+03  0.00000000000E+00 0. -1.
       21   -1    0    0  501  502  0.00000000000E+00  0.00000000000E+00 -0.18817597759E+03  0.18817597759E+03  0.00000000000E+00 0. -1.
        6    1    1    2  501    0  0.83872740089E+02  0.14167359956E+01 -0.50430538829E+02  0.19990090775E+03  0.17430000000E+03 0. -1.
       -6    1    1    2    0  503 -0.83872740089E+02 -0.14167359956E+01  0.85446271079E+02  0.21146677969E+03  0.17430000000E+03 0. -1.
</event>
<event>
 4 661  0.7533903E-01  0.9118800E+02  0.7818608E-02  0.1300000E+00
       -1   -1    0    0    0  502  0.00000000000E+00  0.00000000000E+00  0.47640345140E+03  0.47640345140E+03  0.00000000000E+00 0. -1.
        1   -1    0    0  501    0  0.00000000000E+00  0.00000000000E+00 -0.19295994403E+03  0.19295994403E+03  0.00000000000E+00 0.  1.
        6    1    1    2  501    0  0.14201249198E+03  0.12378909948E+03  0.31990074909E+03  0.41013201325E+03  0.17430000000E+03 0.  1.
       -6    1    1    2    0  502 -0.14201249198E+03 -0.12378909948E+03 -0.36457241721E+02  0.25923138217E+03  0.17430000000E+03 0. -1.
</event>
<event>
 4 661  0.7533903E-01  0.9118800E+02  0.7818608E-02  0.1300000E+00
       21   -1    0    0  501  502  0.00000000000E+00  0.00000000000E+00  0.15770439381E+03  0.15770439381E+03  0.00000000000E+00 0. -1.
       21   -1    0    0  502  503  0.00000000000E+00  0.00000000000E+00 -0.39921601875E+03  0.39921601875E+03  0.00000000000E+00 0. -1.
        6    1    1    2  501    0 -0.14041230063E+02  0.10166065726E+02  0.78625608859E+02  0.19199734738E+03  0.17430000000E+03 0. -1.
       -6    1    1    2    0  503  0.14041230063E+02 -0.10166065726E+02 -0.32013723380E+03  0.36492306518E+03  0.17430000000E+03 0. -1.
</event>
<event>
 4 661  0.7533903E-01  0.9118800E+02  0.7818608E-02  0.1300000E+00
       21   -1    0    0  501  502  0.00000000000E+00  0.00000000000E+00  0.20344471835E+03  0.20344471835E+03  0.00000000000E+00 0. -1.
       21   -1    0    0  502  503  0.00000000000E+00  0.00000000000E+00 -0.26084397160E+03  0.26084397160E+03  0.00000000000E+00 0.  1.
        6    1    1    2  501    0  0.45820731721E+02  0.32716065555E+02  0.11208348502E+03  0.21473955857E+03  0.17430000000E+03 0. -1.
       -6    1    1    2    0  503 -0.45820731721E+02 -0.32716065555E+02 -0.16948273827E+03  0.24954913138E+03  0.17430000000E+03 0.  1.
</event>
<event>
 4 661  0.7533903E-01  0.9118800E+02  0.7818608E-02  0.1300000E+00
       21   -1    0    0  502  503  0.00000000000E+00  0.00000000000E+00  0.70235516137E+03  0.70235516137E+03  0.00000000000E+00 0.  1.
       21   -1    0    0  501  502  0.00000000000E+00  0.00000000000E+00 -0.89308100420E+02  0.89308100420E+02  0.00000000000E+00 0.  1.
        6    1    1    2  501    0 -0.50256330231E+02  0.14251371973E+03  0.15239994999E+03  0.27648163374E+03  0.17430000000E+03 0.  1.
       -6    1    1    2    0  503  0.50256330231E+02 -0.14251371973E+03  0.46064711096E+03  0.51518162804E+03  0.17430000000E+03 0.  1.
</event>
<event>
 4 661  0.7533903E-01  0.9118800E+02  0.7818608E-02  0.1300000E+00
       21   -1    0    0  501  502  0.00000000000E+00  0.00000000000E+00  0.49594488132E+03  0.49594488132E+03  0.00000000000E+00 0. -1.
       21   -1    0    0  502  503  0.00000000000E+00  0.00000000000E+00 -0.15979370773E+03  0.15979370773E+03  0.00000000000E+00 0. -1.
        6    1    1    2  501    0 -0.10294504555E+03 -0.47349254429E+02  0.38914506346E+03  0.44119610687E+03  0.17430000000E+03 0. -1.
       -6    1    1    2    0  503  0.10294504555E+03  0.47349254429E+02 -0.52993889880E+02  0.21454248218E+03  0.17430000000E+03 0. -1.
</event>
<event>
 4 661  0.7533903E-01  0.9118800E+02  0.7818608E-02  0.1300000E+00
        2   -1    0    0  501    0  0.00000000000E+00  0.00000000000E+00  0.56847510358E+03  0.56847510358E+03  0.00000000000E+00 0. -1.
       -2   -1    0    0    0  502  0.00000000000E+00  0.00000000000E+00 -0.34899207515E+03  0.34899207515E+03  0.00000000000E+00 0.  1.
        6    1    1    2  501    0  0.33627634478E+03  0.45906588814E+02 -0.12696549516E+03  0.40210685386E+03  0.17430000000E+03 0.  1.
       -6    1    1    2    0  502 -0.33627634478E+03 -0.45906588814E+02  0.34644852358E+03  0.51536032487E+03  0.17430000000E+03 0. -1.
</event>
<event>
 4 661  0.7533903E-01  0.9118800E+02  0.7818608E-02  0.1300000E+00
       21   -1    0    0  501  502  0.00000000000E+00  0.00000000000E+00  0.11458627355E+03  0.11458627355E+03  0.00000000000E+00 0.  1.
       21   -1    0    0  502  503  0.00000000000E+00  0.00000000000E+00 -0.56558220414E+03  0.56558220414E+03  0.00000000000E+00 0. -1.
        6    1    1    2  501    0 -0.83454982406E+02  0.20315883411E+02 -0.57848624679E+01  0.19440016420E+03  0.17430000000E+03 0.  1.
       -6    1    1    2    0  503  0.83454982406E+02 -0.20315883411E+02 -0.44521106813E+03  0.48576831349E+03  0.17430000000E+03 0. -1.
</event>
<event>
 4 661  0.7533903E-01  0.9118800E+02  0.7818608E-02  0.1300000E+00
       21   -1    0    0  501  502  0.00000000000E+00  0.00000000000E+00  0.25066848985E+03  0.25066848985E+03  0.00000000000E+00 0.  1.
       21   -1    0    0  502  503  0.00000000000E+00  0.00000000000E+00 -0.27925386702E+03  0.27925386702E+03  0.00000000000E+00 0.  1.
        6    1    1    2  501    0  0.11061500485E+03 -0.47615593045E+02  0.14442098165E+03  0.25639975417E+03  0.17430000000E+03 0.  1.
       -6    1    1    2    0  503 -0.11061500485E+03  0.47615593045E+02 -0.17300635882E+03  0.27352260270E+03  0.17430000000E+03 0.  1.
</event>
<event>
 4 661  0.7533903E-01  0.9118800E+02  0.7818608E-02  0.1300000E+00
       21   -1    0    0  502  503  0.00000000000E+00  0.00000000000E+00  0.14805407717E+04  0.14805407717E+04  0.00000000000E+00 0.  1.
       21   -1    0    0  501  502  0.00000000000E+00  0.00000000000E+00 -0.86171393570E+02  0.86171393570E+02  0.00000000000E+00 0.  1.
        6    1    1    2  501    0 -0.58489191414E+01 -0.15116262223E+03  0.99314424657E+02  0.25125324507E+03  0.17430000000E+03 0.  1.
       -6    1    1    2    0  503  0.58489191414E+01  0.15116262223E+03  0.12950549535E+04  0.13154589202E+04  0.17430000000E+03 0.  1.
</event>
<event>
 4 661  0.7533903E-01  0.9118800E+02  0.7818608E-02  0.1300000E+00
       21   -1    0    0  502  503  0.00000000000E+00  0.00000000000E+00  0.72450521667E+03  0.72450521667E+03  0.00000000000E+00 0. -1.
       21   -1    0    0  501  502  0.00000000000E+00  0.00000000000E+00 -0.28288312533E+03  0.28288312533E+03  0.00000000000E+00 0.  1.
        6    1    1    2  501    0 -0.33833168733E+03  0.14766447132E+03  0.30785616302E+01  0.40824391518E+03  0.17430000000E+03 0. -1.
       -6    1    1    2    0  503  0.33833168733E+03 -0.14766447132E+03  0.43854352972E+03  0.59914442682E+03  0.17430000000E+03 0. -1.
</event>
<event>
 4 661  0.7533903E-01  0.9118800E+02  0.7818608E-02  0.1300000E+00
       21   -1    0    0  502  503  0.00000000000E+00  0.00000000000E+00  0.11398044841E+03  0.11398044841E+03  0.00000000000E+00 0.  1.
       21   -1    0    0  501  502  0.00000000000E+00  0.00000000000E+00 -0.57710365536E+03  0.57710365536E+03  0.00000000000E+00 0. -1.
        6    1    1    2  501    0 -0.10425077971E+03 -0.81855767765E+02 -0.41146021346E+03  0.46609933389E+03  0.17430000000E+03 0. -1.
       -6    1    1    2    0  503  0.10425077971E+03  0.81855767765E+02 -0.51662993485E+02  0.22498476989E+03  0.17430000000E+03 0.  1.
</event>
<event>
 4 661  0.7533903E-01  0.9118800E+02  0.7818608E-02  0.1300000E+00
       21   -1    0    0  501  502  0.00000000000E+00  0.00000000000E+00  0.71598771324E+02  0.71598771324E+02  0.00000000000E+00 0.  1.
       21   -1    0    0  502  503  0.00000000000E+00  0.00000000000E+00 -0.58022656310E+03  0.58022656310E+03  0.00000000000E+00 0. -1.
        6    1    1    2  501    0 -0.67141764300E+02 -0.81265212121E+02 -0.26572946496E+03  0.33482038433E+03  0.17430000000E+03 0.  1.
       -6    1    1    2    0  503  0.67141764300E+02  0.81265212121E+02 -0.24289832681E+03  0.31700495009E+03  0.17430000000E+03 0. -1.
</event>
<event>
 4 661  0.7533903E-01  0.9118800E+02  0.7818608E-02  0.1300000E+00
       21   -1    0    0  501  502  0.00000000000E+00  0.00000000000E+00  0.58155198081E+03  0.58155198081E+03  0.00000000000E+00 0. -1.
       21   -1    0    0  502  503  0.00000000000E+00  0.00000000000E+00 -0.87163866789E+02  0.87163866789E+02  0.00000000000E+00 0. -1.
        6    1    1    2  501    0  0.68923393262E+02  0.73544168642E+02  0.39681625953E+03  0.44497506976E+03  0.17430000000E+03 0. -1.
       -6    1    1    2    0  503 -0.68923393262E+02 -0.73544168642E+02  0.97571854493E+02  0.22374077784E+03  0.17430000000E+03 0. -1.
</event>
<event>
 4 661  0.7533903E-01  0.9118800E+02  0.7818608E-02  0.1300000E+00
       21   -1    0    0  501  502  0.00000000000E+00  0.00000000000E+00  0.44341404554E+03  0.44341404554E+03  0.00000000000E+00 0. -1.
       21   -1    0    0  502  503  0.00000000000E+00  0.00000000000E+00 -0.23446657046E+03  0.23446657046E+03  0.00000000000E+00 0.  1.
        6    1    1    2  501    0  0.81321387660E+02  0.21150765341E+03  0.26122551263E+03  0.38725690955E+03  0.17430000000E+03 0. -1.
       -6    1    1    2    0  503 -0.81321387660E+02 -0.21150765341E+03 -0.52278037551E+02  0.29062370645E+03  0.17430000000E+03 0.  1.
</event>
<event>
 4 661  0.7533903E-01  0.9118800E+02  0.7818608E-02  0.1300000E+00
       21   -1    0    0  501  502  0.00000000000E+00  0.00000000000E+00  0.28068839999E+03  0.28068839999E+03  0.00000000000E+00 0.  1.
       21   -1    0    0  502  503  0.00000000000E+00  0.00000000000E+00 -0.23674751973E+03  0.23674751973E+03  0.00000000000E+00 0.  1.
        6    1    1    2  501    0 -0.12600408018E+03  0.63001549749E+02  0.14981186269E+03  0.26957430830E+03  0.17430000000E+03 0.  1.
       -6    1    1    2    0  503  0.12600408018E+03 -0.63001549749E+02 -0.10587098242E+03  0.24786161141E+03  0.17430000000E+03 0.  1.
</event>
<event>
 4 661  0.7533903E-01  0.9118800E+02  0.7818608E-02  0.1300000E+00
       21   -1    0    0  501  502  0.00000000000E+00  0.00000000000E+00  0.65409558701E+03  0.65409558701E+03  0.00000000000E+00 0.  1.
       21   -1    0    0  502  503  0.00000000000E+00  0.00000000000E+00 -0.79586453829E+02  0.79586453829E+02  0.00000000000E+00 0.  1.
        6    1    1    2  501    0  0.58291524076E+02  0.95314515144E+02  0.44142020512E+03  0.48756029993E+03  0.17430000000E+03 0.  1.
       -6    1    1    2    0  503 -0.58291524076E+02 -0.95314515144E+02  0.13308892805E+03  0.24612174091E+03  0.17430000000E+03 0.  1.
</event>
<event>
 4 661  0.7533903E-01  0.9118800E+02  0.7818608E-02  0.1300000E+00
       21   -1    0    0  502  503  0.00000000000E+00  0.00000000000E+00  0.56770324776E+03  0.56770324776E+03  0.00000000000E+00 0. -1.
       21   -1    0    0  501  502  0.00000000000E+00  0.00000000000E+00 -0.74803669915E+02  0.74803669915E+02  0.00000000000E+00 0. -1.
        6    1    1    2  501    0  0.25578659449E+02  0.17298737683E+02  0.81968017702E+02  0.19507116668E+03  0.17430000000E+03 0. -1.
       -6    1    1    2    0  503 -0.25578659449E+02 -0.17298737683E+02  0.41093156014E+03  0.44743575099E+03  0.17430000000E+03 0. -1.
</event>
<event>
 4 661  0.7533903E-01  0.9118800E+02  0.7818608E-02  0.1300000E+00
       21   -1    0    0  502  503  0.00000000000E+00  0.00000000000E+00  0.14926224872E+04  0.14926224872E+04  0.00000000000E+00 0. -1.
       21   -1    0    0  501  502  0.00000000000E+00  0.00000000000E+00 -0.64236158636E+02  0.64236158636E+02  0.00000000000E+00 0. -1.
        6    1    1    2  501    0  0.17126501670E+03 -0.18732897520E+03  0.63173012523E+03  0.70277115195E+03  0.17430000000E+03 0. -1.
       -6    1    1    2    0  503 -0.17126501670E+03  0.18732897520E+03  0.79665620333E+03  0.85408749388E+03  0.17430000000E+03 0. -1.
</event>
<event>
 4 661  0.7533903E-01  0.9118800E+02  0.7818608E-02  0.1300000E+00
       21   -1    0    0  501  502  0.00000000000E+00  0.00000000000E+00  0.17722557661E+03  0.17722557661E+03  0.00000000000E+00 0. -1.
       21   -1    0    0  502  503  0.00000000000E+00  0.00000000000E+00 -0.23302926643E+03  0.23302926643E+03  0.00000000000E+00 0. -1.
        6    1    1    2  501    0 -0.40698818286E+02  0.91773838776E+02  0.13427890342E+01  0.20114950752E+03  0.17430000000E+03 0. -1.
       -6    1    1    2    0  503  0.40698818286E+02 -0.91773838776E+02 -0.57146478855E+02  0.20910533551E+03  0.17430000000E+03 0. -1.
</event>
<event>
 4 661  0.7533903E-01  0.9118800E+02  0.7818608E-02  0.1300000E+00
       21   -1    0    0  501  502  0.00000000000E+00  0.00000000000E+00  0.58536608035E+03  0.58536608035E+03  0.00000000000E+00 0.  1.
       21   -1    0    0  502  503  0.00000000000E+00  0.00000000000E+00 -0.13873478918E+03  0.13873478918E+03  0.00000000000E+00 0.  1.
        6    1    1    2  501    0 -0.12725163766E+03 -0.46537796985E+02  0.45225114476E+03  0.50325970807E+03  0.17430000000E+03 0.  1.
       -6    1    1    2    0  503  0.12725163766E+03  0.46537796985E+02 -0.56198535854E+01  0.22084116145E+03  0.17430000000E+03 0.  1.
</event>
<event>
 4 661  0.7533903E-01  0.9118800E+02  0.7818608E-02  0.1300000E+00
       21   -1    0    0  501  502  0.00000000000E+00  0.00000000000E+00  0.67819738928E+02  0.67819738928E+02  0.00000000000E+00 0.  1.
       21   -1    0    0  502  503  0.00000000000E+00  0.00000000000E+00 -0.80185907638E+03  0.80185907638E+03  0.00000000000E+00 0.  1.
        6    1    1    2  501    0 -0.59002815847E+02 -0.45175745838E+02 -0.11353982467E+03  0.22089355372E+03  0.17430000000E+03 0.  1.
       -6    1    1    2    0  503  0.59002815847E+02  0.45175745838E+02 -0.62049951278E+03  0.64878526159E+03  0.17430000000E+03 0.  1.
</event>
<event>
 4 661  0.7533903E-01  0.9118800E+02  0.7818608E-02  0.1300000E+00
       21   -1    0    0  501  502  0.00000000000E+00  0.00000000000E+00  0.17091741309E+03  0.17091741309E+03  0.00000000000E+00 0.  1.
       21   -1    0    0  502  503  0.00000000000E+00  0.00000000000E+00 -0.25634062006E+03  0.25634062006E+03  0.00000000000E+00 0. -1.
        6    1    1    2  501    0  0.75700675945E+02  0.79246612018E+02 -0.42255613371E+01  0.20593436630E+03  0.17430000000E+03 0.  1.
       -6    1    1    2    0  503 -0.75700675945E+02 -0.79246612018E+02 -0.81197645634E+02  0.22132366686E+03  0.17430000000E+03 0.  1.
</event>
<event>
 4 661  0.7533903E-01  0.9118800E+02  0.7818608E-02  0.1300000E+00
        2   -1    0    0  501    0  0.00000000000E+00  0.00000000000E+00  0.10021257466E+04  0.10021257466E+04  0.00000000000E+00 0. -1.
       -2   -1    0    0    0  502  0.00000000000E+00  0.00000000000E+00 -0.51028837262E+02  0.51028837262E+02  0.00000000000E+00 0.  1.
        6    1    1    2  501    0 -0.10235695342E+03 -0.84054260968E+02  0.60757682170E+03  0.64581123323E+03  0.17430000000E+03 0. -1.
       -6    1    1    2    0  502  0.10235695342E+03  0.84054260968E+02  0.34352008769E+03  0.40734335068E+03  0.17430000000E+03 0.  1.
</event>
<event>
 4 661  0.7533903E-01  0.9118800E+02  0.7818608E-02  0.1300000E+00
       21   -1    0    0  501  502  0.00000000000E+00  0.00000000000E+00  0.61314700247E+02  0.61314700247E+02  0.00000000000E+00 0. -1.
       21   -1    0    0  502  503  0.00000000000E+00  0.00000000000E+00 -0.63527443952E+03  0.63527443952E+03  0.00000000000E+00 0. -1.
        6    1    1    2  501    0 -0.21699617572E+02  0.12065518664E+02 -0.12958295935E+03  0.21860622932E+03  0.17430000000E+03 0. -1.
       -6    1    1    2    0  503  0.21699617572E+02 -0.12065518664E+02 -0.44437677993E+03  0.47798291045E+03  0.17430000000E+03 0. -1.
</event>
<event>
 4 661  0.7533903E-01  0.9118800E+02  0.7818608E-02  0.1300000E+00
       21   -1    0    0  502  503  0.00000000000E+00  0.00000000000E+00  0.11156198250E+03  0.11156198250E+03  0.00000000000E+00 0.  1.
       21   -1    0    0  501  502  0.00000000000E+00  0.00000000000E+00 -0.39581646863E+03  0.39581646863E+03  0.00000000000E+00 0.  1.
        6    1    1    2  501    0 -0.13692989604E+02 -0.79059583407E+02 -0.24555451702E+03  0.31163348107E+03  0.17430000000E+03 0.  1.
       -6    1    1    2    0  503  0.13692989604E+02  0.79059583407E+02 -0.38699969108E+02  0.19574497005E+03  0.17430000000E+03 0.  1.
</event>
<event>
 4 661  0.7533903E-01  0.9118800E+02  0.7818608E-02  0.1300000E+00
       21   -1    0    0  502  503  0.00000000000E+00  0.00000000000E+00  0.38371637356E+02  0.38371637356E+02  0.00000000000E+00 0.  1.
       21   -1    0    0  501  502  0.00000000000E+00  0.00000000000E+00 -0.25896948803E+04  0.25896948803E+04  0.00000000000E+00 0.  1.
        6    1    1    2  501    0  0.13914623581E+03  0.48848543365E+02 -0.21816930692E+04  0.21936073015E+04  0.17430000000E+03 0.  1.
       -6    1    1    2    0  503 -0.13914623581E+03 -0.48848543365E+02 -0.36963017370E+03  0.43445921608E+03  0.17430000000E+03 0.  1.
</event>
<event>
 4 661  0.7533903E-01  0.9118800E+02  0.7818608E-02  0.1300000E+00
        1   -1    0    0  501    0  0.00000000000E+00  0.00000000000E+00  0.99511790074E+03  0.99511790074E+03  0.00000000000E+00 0.  1.
       -1   -1    0    0    0  502  0.00000000000E+00  0.00000000000E+00 -0.13441964211E+03  0.13441964211E+03  0.00000000000E+00 0. -1.
        6    1    1    2  501    0  0.22824165320E+03  0.10449259228E+03  0.12008531107E+03  0.32835030993E+03  0.17430000000E+03 0. -1.
       -6    1    1    2    0  502 -0.22824165320E+03 -0.10449259228E+03  0.74061294756E+03  0.80118723292E+03  0.17430000000E+03 0.  1.
</event>
<event>
 4 661  0.7533903E-01  0.9118800E+02  0.7818608E-02  0.1300000E+00
       21   -1    0    0  502  503  0.00000000000E+00  0.00000000000E+00  0.42583421896E+03  0.42583421896E+03  0.00000000000E+00 0. -1.
       21   -1    0    0  501  502  0.00000000000E+00  0.00000000000E+00 -0.19135681395E+03  0.19135681395E+03  0.00000000000E+00 0. -1.
        6    1    1    2  501    0 -0.88637287439E+02  0.84748849917E+02 -0.88067227317E+02  0.23059762101E+03  0.17430000000E+03 0. -1.
       -6    1    1    2    0  503  0.88637287439E+02 -0.84748849917E+02  0.32254463233E+03  0.38659341191E+03  0.17430000000E+03 0. -1.
</event>
<event>
 4 661  0.7533903E-01  0.9118800E+02  0.7818608E-02  0.1300000E+00
       21   -1    0    0  501  502  0.00000000000E+00  0.00000000000E+00  0.19538600921E+03  0.19538600921E+03  0.00000000000E+00 0.  1.
       21   -1    0    0  502  503  0.00000000000E+00  0.00000000000E+00 -0.28967354367E+03  0.28967354367E+03  0.00000000000E+00 0. -1.
        6    1    1    2  501    0 -0.14082152201E+03  0.77286027642E+02 -0.26405219690E+02  0.23849854666E+03  0.17430000000E+03 0.  1.
       -6    1    1    2    0  503  0.14082152201E+03 -0.77286027642E+02 -0.67882314769E+02  0.24656100622E+03  0.17430000000E+03 0.  1.
</event>
<event>
 4 661  0.7533903E-01  0.9118800E+02  0.7818608E-02  0.1300000E+00
       21   -1    0    0  502  503  0.00000000000E+00  0.00000000000E+00  0.24228193315E+03  0.24228193315E+03  0.00000000000E+00 0. -1.
       21   -1    0    0  501  502  0.00000000000E+00  0.00000000000E+00 -0.58038228052E+03  0.58038228052E+03  0.00000000000E+00 0. -1.
        6    1    1    2  501    0  0.20208662104E+03 -0.20067489560E+03  0.18154719183E+02  0.33439422835E+03  0.17430000000E+03 0. -1.
       -6    1    1    2    0  503 -0.20208662104E+03  0.20067489560E+03 -0.35625506654E+03  0.48826998532E+03  0.17430000000E+03 0. -1.
</event>
<event>
 4 661  0.7533903E-01  0.9118800E+02  0.7818608E-02  0.1300000E+00
       21   -1    0    0  501  502  0.00000000000E+00  0.00000000000E+00  0.77933234050E+03  0.77933234050E+03  0.00000000000E+00 0. -1.
       21   -1    0    0  502  503  0.00000000000E+00  0.00000000000E+00 -0.11230798743E+03  0.11230798743E+03  0.00000000000E+00 0.  1.
        6    1    1    2  501    0  0.10183055794E+03  0.55382025558E+02  0.64855828958E+03  0.68150200020E+03  0.17430000000E+03 0. -1.
       -6    1    1    2    0  503 -0.10183055794E+03 -0.55382025558E+02  0.18466063487E+02  0.21013832774E+03  0.17430000000E+03 0.  1.
</event>
<event>
 4 661  0.7533903E-01  0.9118800E+02  0.7818608E-02  0.1300000E+00
       21   -1    0    0  501  502  0.00000000000E+00  0.00000000000E+00  0.65206258916E+02  0.65206258916E+02  0.00000000000E+00 0. -1.
       21   -1    0    0  502  503  0.00000000000E+00  0.00000000000E+00 -0.11697234523E+04  0.11697234523E+04  0.00000000000E+00 0. -1.
        6    1    1    2  501    0  0.70423405206E+02 -0.88096687375E+02 -0.14505283643E+03  0.25326132291E+03  0.17430000000E+03 0. -1.
       -6    1    1    2    0  503 -0.70423405206E+02  0.88096687375E+02 -0.95946435694E+03  0.98166838829E+03  0.17430000000E+03 0. -1.
</event>
<event>
 4 661  0.7533903E-01  0.9118800E+02  0.7818608E-02  0.1300000E+00
       21   -1    0    0  502  503  0.00000000000E+00  0.00000000000E+00  0.14750698862E+03  0.14750698862E+03  0.00000000000E+00 0.  1.
       21   -1    0    0  501  502  0.00000000000E+00  0.00000000000E+00 -0.69383054617E+03  0.69383054617E+03  0.00000000000E+00 0.  1.
        6    1    1    2  501    0  0.20030124200E+03 -0.45182276218E+02 -0.50016521781E+03  0.56807372826E+03  0.17430000000E+03 0.  1.
       -6    1    1    2    0  503 -0.20030124200E+03  0.45182276218E+02 -0.46158339739E+02  0.27326380653E+03  0.17430000000E+03 0.  1.
</event>
<event>
 4 661  0.7533903E-01  0.9118800E+02  0.7818608E-02  0.1300000E+00
       21   -1    0    0  502  503  0.00000000000E+00  0.00000000000E+00  0.64467850798E+02  0.64467850798E+02  0.00000000000E+00 0. -1.
       21   -1    0    0  501  502  0.00000000000E+00  0.00000000000E+00 -0.59404702553E+03  0.59404702553E+03  0.00000000000E+00 0. -1.
        6    1    1    2  501    0 -0.49484647234E+02 -0.30294861014E+02 -0.37827923151E+03  0.42052607043E+03  0.17430000000E+03 0. -1.
       -6    1    1    2    0  503  0.49484647234E+02  0.30294861014E+02 -0.15129994322E+03  0.23798880590E+03  0.17430000000E+03 0. -1.
</event>
<event>
 4 661  0.7533903E-01  0.9118800E+02  0.7818608E-02  0.1300000E+00
       21   -1    0    0  502  503  0.00000000000E+00  0.00000000000E+00  0.90293801579E+02  0.90293801579E+02  0.00000000000E+00 0. -1.
       21   -1    0    0  501  502  0.00000000000E+00  0.00000000000E+00 -0.89357588524E+03  0.89357588524E+03  0.00000000000E+00 0. -1.
        6    1    1    2  501    0 -0.84703847179E+02  0.17296821487E+03 -0.20258156640E+03  0.32941239522E+03  0.17430000000E+03 0. -1.
       -6    1    1    2    0  503  0.84703847179E+02 -0.17296821487E+03 -0.60070051727E+03  0.65445729160E+03  0.17430000000E+03 0. -1.
</event>
<event>
 4 661  0.7533903E-01  0.9118800E+02  0.7818608E-02  0.1300000E+00
       21   -1    0    0  502  503  0.00000000000E+00  0.00000000000E+00  0.64972269835E+03  0.64972269835E+03  0.00000000000E+00 0.  1.
       21   -1    0    0  501  502  0.00000000000E+00  0.00000000000E+00 -0.10763362690E+03  0.10763362690E+03  0.00000000000E+00 0.  1.
        6    1    1    2  501    0 -0.41899848993E+02  0.15019500882E+03  0.44780593822E+03  0.50519776951E+03  0.17430000000E+03 0.  1.
       -6    1    1    2    0  503  0.41899848993E+02 -0.15019500882E+03  0.94283133231E+02  0.25215855574E+03  0.17430000000E+03 0.  1.
</event>
<event>
 4 661  0.7533903E-01  0.9118800E+02  0.7818608E-02  0.1300000E+00
       21   -1    0    0  502  503  0.00000000000E+00  0.00000000000E+00  0.45925479803E+03  0.45925479803E+03  0.00000000000E+00 0. -1.
       21   -1    0    0  501  502  0.00000000000E+00  0.00000000000E+00 -0.19146572813E+03  0.19146572813E+03  0.00000000000E+00 0. -1.
        6    1    1    2  501    0 -0.52644240214E+02 -0.21304350306E+03  0.27560127565E+02  0.28160078277E+03  0.17430000000E+03 0. -1.
       -6    1    1    2    0  503  0.52644240214E+02  0.21304350306E+03  0.24022894234E+03  0.36911974339E+03  0.17430000000E+03 0. -1.
</event>
<event>
 4 661  0.7533903E-01  0.9118800E+02  0.7818608E-02  0.1300000E+00
       21   -1    0    0  502  503  0.00000000000E+00  0.00000000000E+00  0.54484174486E+03  0.54484174486E+03  0.00000000000E+00 0.  1.
       21   -1    0    0  501  502  0.00000000000E+00  0.00000000000E+00 -0.36710325878E+03  0.36710325878E+03  0.00000000000E+00 0. -1.
        6    1    1    2  501    0  0.31742837738E+03 -0.73582361081E+02 -0.16796386086E+03  0.40591561584E+03  0.17430000000E+03 0.  1.
       -6    1    1    2    0  503 -0.31742837738E+03  0.73582361081E+02  0.34570234695E+03  0.50602938780E+03  0.17430000000E+03 0. -1.
</event>
<event>
 4 661  0.7533903E-01  0.9118800E+02  0.7818608E-02  0.1300000E+00
       21   -1    0    0  502  503  0.00000000000E+00  0.00000000000E+00  0.69067449409E+02  0.69067449409E+02  0.00000000000E+00 0. -1.
       21   -1    0    0  501  502  0.00000000000E+00  0.00000000000E+00 -0.13517449770E+04  0.13517449770E+04  0.00000000000E+00 0.  1.
        6    1    1    2  501    0 -0.86935410096E+02 -0.11208946102E+03 -0.11226711346E+04  0.11449422602E+04  0.17430000000E+03 0. -1.
       -6    1    1    2    0  503  0.86935410096E+02  0.11208946102E+03 -0.16000639305E+03  0.27587016623E+03  0.17430000000E+03 0. -1.
</event>
<event>
 4 661  0.7533903E-01  0.9118800E+02  0.7818608E-02  0.1300000E+00
       21   -1    0    0  502  503  0.00000000000E+00  0.00000000000E+00  0.93237802411E+03  0.93237802411E+03  0.00000000000E+00 0.  1.
       21   -1    0    0  501  502  0.00000000000E+00  0.00000000000E+00 -0.44560341801E+03  0.44560341801E+03  0.00000000000E+00 0.  1.
        6    1    1    2  501    0 -0.56652703729E+02 -0.17635905583E+03 -0.38969396110E+03  0.46535354166E+03  0.17430000000E+03 0.  1.
       -6    1    1    2    0  503  0.56652703729E+02  0.17635905583E+03  0.87646856720E+03  0.91262790046E+03  0.17430000000E+03 0.  1.
</event>
<event>
 4 661  0.7533903E-01  0.9118800E+02  0.7818608E-02  0.1300000E+00
       21   -1    0    0  502  503  0.00000000000E+00  0.00000000000E+00  0.15932983904E+03  0.15932983904E+03  0.00000000000E+00 0. -1.
       21   -1    0    0  501  502  0.00000000000E+00  0.00000000000E+00 -0.65741484218E+03  0.65741484218E+03  0.00000000000E+00 0.  1.
        6    1    1    2  501    0  0.13812345271E+03  0.66667170282E+02 -0.53355566136E+03  0.58188034299E+03  0.17430000000E+03 0.  1.
       -6    1    1    2    0  503 -0.13812345271E+03 -0.66667170282E+02  0.35470658220E+02  0.23486433824E+03  0.17430000000E+03 0. -1.
</event>
<event>
 4 661  0.7533903E-01  0.9118800E+02  0.7818608E-02  0.1300000E+00
       21   -1    0    0  502  503  0.00000000000E+00  0.00000000000E+00  0.35990759581E+04  0.35990759581E+04  0.00000000000E+00 0. -1.
       21   -1    0    0  501  502  0.00000000000E+00  0.00000000000E+00 -0.83500213566E+02  0.83500213566E+02  0.00000000000E+00 0. -1.
        6    1    1    2  501    0  0.30695846913E+02 -0.17392657769E+03  0.11592699913E+03  0.27388364057E+03  0.17430000000E+03 0. -1.
       -6    1    1    2    0  503 -0.30695846913E+02  0.17392657769E+03  0.33996487454E+04  0.34086925311E+04  0.17430000000E+03 0. -1.
</event>
<event>
 4 661  0.7533903E-01  0.9118800E+02  0.7818608E-02  0.1300000E+00
       21   -1    0    0  501  502  0.00000000000E+00  0.00000000000E+00  0.42447036884E+02  0.42447036884E+02  0.00000000000E+00 0. -1.
       21   -1    0    0  502  503  0.00000000000E+00  0.00000000000E+00 -0.72665255377E+03  0.72665255377E+03  0.00000000000E+00 0. -1.
        6    1    1    2  501    0  0.19697988518E+02  0.58557541018E+01 -0.32800450928E+03  0.37200772669E+03  0.17430000000E+03 0. -1.
       -6    1    1    2    0  503 -0.19697988518E+02 -0.58557541018E+01 -0.35620100761E+03  0.39709186397E+03  0.17430000000E+03 0. -1.
</event>
<event>
 4 661  0.7533903E-01  0.9118800E+02  0.7818608E-02  0.1300000E+00
       21   -1    0    0  501  502  0.00000000000E+00  0.00000000000E+00  0.13760027443E+03  0.13760027443E+03  0.00000000000E+00 0. -1.
       21   -1    0    0  502  503  0.00000000000E+00  0.00000000000E+00 -0.23174155659E+03  0.23174155659E+03  0.00000000000E+00 0. -1.
        6    1    1    2  501    0  0.22153301680E+02  0.14970947647E+02 -0.76180190589E+02  0.19209062832E+03  0.17430000000E+03 0. -1.
       -6    1    1    2    0  503 -0.22153301680E+02 -0.14970947647E+02 -0.17961091580E+02  0.17725120270E+03  0.17430000000E+03 0. -1.
</event>
<event>
 4 661  0.7533903E-01  0.9118800E+02  0.7818608E-02  0.1300000E+00
       21   -1    0    0  502  503  0.00000000000E+00  0.00000000000E+00  0.91220814208E+02  0.91220814208E+02  0.00000000000E+00 0.  1.
       21   -1    0    0  501  502  0.00000000000E+00  0.00000000000E+00 -0.46373938389E+03  0.46373938389E+03  0.00000000000E+00 0.  1.
        6    1    1    2  501    0 -0.32127623370E+02 -0.88288753197E+02 -0.26131532462E+03  0.32786167359E+03  0.17430000000E+03 0.  1.
       -6    1    1    2    0  503  0.32127623370E+02  0.88288753197E+02 -0.11120324507E+03  0.22709852452E+03  0.17430000000E+03 0.  1.
</event>
<event>
 4 661  0.7533903E-01  0.9118800E+02  0.7818608E-02  0.1300000E+00
       21   -1    0    0  501  502  0.00000000000E+00  0.00000000000E+00  0.20853028430E+03  0.20853028430E+03  0.00000000000E+00 0.  1.
       21   -1    0    0  502  503  0.00000000000E+00  0.00000000000E+00 -0.24782134245E+03  0.24782134245E+03  0.00000000000E+00 0. -1.
        6    1    1    2  501    0  0.49221477751E+02 -0.81484351212E+02 -0.13067114846E+03  0.23773492046E+03  0.17430000000E+03 0. -1.
       -6    1    1    2    0  503 -0.49221477751E+02  0.81484351212E+02  0.91380090311E+02  0.21861670629E+03  0.17430000000E+03 0.  1.
</event>
<event>
 4 661  0.7533903E-01  0.9118800E+02  0.7818608E-02  0.1300000E+00
       21   -1    0    0  502  503  0.00000000000E+00  0.00000000000E+00  0.16289532338E+03  0.16289532338E+03  0.00000000000E+00 0. -1.
       21   -1    0    0  501  502  0.00000000000E+00  0.00000000000E+00 -0.29744670122E+03  0.29744670122E+03  0.00000000000E+00 0.  1.
        6    1    1    2  501    0 -0.10772573322E+03  0.31202216149E+02 -0.14478023259E+03  0.25282447990E+03  0.17430000000E+03 0.  1.
       -6    1    1    2    0  503  0.10772573322E+03 -0.31202216149E+02  0.10228854743E+02  0.20751754470E+03  0.17430000000E+03 0. -1.
</event>
<event>
 4 661  0.7533903E-01  0.9118800E+02  0.7818608E-02  0.1300000E+00
       21   -1    0    0  502  503  0.00000000000E+00  0.00000000000E+00  0.19524986345E+03  0.19524986345E+03  0.00000000000E+00 0. -1.
       21   -1    0    0  501  502  0.00000000000E+00  0.00000000000E+00 -0.19754168067E+03  0.19754168067E+03  0.00000000000E+00 0. -1.
        6    1    1    2  501    0 -0.17191626762E+02 -0.66979274236E+02 -0.59522590460E+02  0.19673638195E+03  0.17430000000E+03 0. -1.
       -6    1    1    2    0  503  0.17191626762E+02  0.66979274236E+02  0.57230773247E+02  0.19605516217E+03  0.17430000000E+03 0. -1.
</event>
<event>
 4 661  0.7533903E-01  0.9118800E+02  0.7818608E-02  0.1300000E+00
       21   -1    0    0  502  503  0.00000000000E+00  0.00000000000E+00  0.51470745935E+03  0.51470745935E+03  0.00000000000E+00 0.  1.
       21   -1    0    0  501  502  0.00000000000E+00  0.00000000000E+00 -0.15042628781E+03  0.15042628781E+03  0.00000000000E+00 0. -1.
        6    1    1    2  501    0 -0.31658244888E+02 -0.10708141766E+03 -0.40101637482E+02  0.21084901187E+03  0.17430000000E+03 0. -1.
       -6    1    1    2    0  503  0.31658244888E+02  0.10708141766E+03  0.40438280902E+03  0.45428473528E+03  0.17430000000E+03 0.  1.
</event>
<event>
 4 661  0.7533903E-01  0.9118800E+02  0.7818608E-02  0.1300000E+00
       21   -1    0    0  501  502  0.00000000000E+00  0.00000000000E+00  0.21001384215E+02  0.21001384215E+02  0.00000000000E+00 0.  1.
       21   -1    0    0  502  503  0.00000000000E+00  0.00000000000E+00 -0.30487746851E+04  0.30487746851E+04  0.00000000000E+00 0. -1.
        6    1    1    2  501    0 -0.12887440953E+03  0.10883020849E+03 -0.10766683300E+04  0.11036520333E+04  0.17430000000E+03 0.  1.
       -6    1    1    2    0  503  0.12887440953E+03 -0.10883020849E+03 -0.19511049708E+04  0.19661240360E+04  0.17430000000E+03 0.  1.
</event>
<event>
 4 661  0.7533903E-01  0.9118800E+02  0.7818608E-02  0.1300000E+00
       21   -1    0    0  501  502  0.00000000000E+00  0.00000000000E+00  0.33218483637E+03  0.33218483637E+03  0.00000000000E+00 0. -1.
       21   -1    0    0  502  503  0.00000000000E+00  0.00000000000E+00 -0.11433295211E+03  0.11433295211E+03  0.00000000000E+00 0. -1.
        6    1    1    2  501    0 -0.84480275851E+02 -0.20241832837E+01  0.84404508964E+02  0.21129511461E+03  0.17430000000E+03 0. -1.
       -6    1    1    2    0  503  0.84480275851E+02  0.20241832837E+01  0.13344737530E+03  0.23522267387E+03  0.17430000000E+03 0. -1.
</event>
<event>
 4 661  0.7533903E-01  0.9118800E+02  0.7818608E-02  0.1300000E+00
       21   -1    0    0  502  503  0.00000000000E+00  0.00000000000E+00  0.99182080807E+02  0.99182080807E+02  0.00000000000E+00 0. -1.
       21   -1    0    0  501  502  0.00000000000E+00  0.00000000000E+00 -0.76563863654E+03  0.76563863654E+03  0.00000000000E+00 0. -1.
        6    1    1    2  501    0  0.18047398850E+02  0.11478412808E+03 -0.61417404043E+03  0.64891551576E+03  0.17430000000E+03 0. -1.
       -6    1    1    2    0  503 -0.18047398850E+02 -0.11478412808E+03 -0.52282515309E+02  0.21590520159E+03  0.17430000000E+03 0. -1.
</event>
<event>
 4 661  0.7533903E-01  0.9118800E+02  0.7818608E-02  0.1300000E+00
       21   -1    0    0  502  503  0.00000000000E+00  0.00000000000E+00  0.10165739562E+03  0.10165739562E+03  0.00000000000E+00 0.  1.
       21   -1    0    0  501  502  0.00000000000E+00  0.00000000000E+00 -0.39409132539E+03  0.39409132539E+03  0.00000000000E+00 0.  1.
        6    1    1    2  501    0 -0.87023607827E+02 -0.38935272949E+02 -0.11606627495E+03  0.23008896971E+03  0.17430000000E+03 0.  1.
       -6    1    1    2    0  503  0.87023607827E+02  0.38935272949E+02 -0.17636765481E+03  0.26565975130E+03  0.17430000000E+03 0.  1.
</event>
<event>
 4 661  0.7533903E-01  0.9118800E+02  0.7818608E-02  0.1300000E+00
       21   -1    0    0  502  503  0.00000000000E+00  0.00000000000E+00  0.30088721563E+03  0.30088721563E+03  0.00000000000E+00 0. -1.
       21   -1    0    0  501  502  0.00000000000E+00  0.00000000000E+00 -0.41727668160E+03  0.41727668160E+03  0.00000000000E+00 0. -1.
        6    1    1    2  501    0  0.19161082334E+03  0.10981121051E+03 -0.27648601337E+03  0.39445939609E+03  0.17430000000E+03 0. -1.
       -6    1    1    2    0  503 -0.19161082334E+03 -0.10981121051E+03  0.16009654740E+03  0.32370450115E+03  0.17430000000E+03 0. -1.
</event>
<event>
 4 661  0.7533903E-01  0.9118800E+02  0.7818608E-02  0.1300000E+00
        1   -1    0    0  501    0  0.00000000000E+00  0.00000000000E+00  0.39948111767E+03  0.39948111767E+03  0.00000000000E+00 0.  1.
       -1   -1    0    0    0  502  0.00000000000E+00  0.00000000000E+00 -0.91510865548E+02  0.91510865548E+02  0.00000000000E+00 0. -1.
        6    1    1    2  501    0  0.54245865827E+01 -0.76897563056E+02  0.17361420815E+03  0.25780815467E+03  0.17430000000E+03 0.  1.
       -6    1    1    2    0  502 -0.54245865827E+01  0.76897563056E+02  0.13435604397E+03  0.23318382855E+03  0.17430000000E+03 0. -1.
</event>
<event>
 4 661  0.7533903E-01  0.9118800E+02  0.7818608E-02  0.1300000E+00
       21   -1    0    0  501  502  0.00000000000E+00  0.00000000000E+00  0.14199787148E+04  0.14199787148E+04  0.00000000000E+00 0. -1.
       21   -1    0    0  502  503  0.00000000000E+00  0.00000000000E+00 -0.28991050379E+02  0.28991050379E+02  0.00000000000E+00 0. -1.
        6    1    1    2  501    0  0.10189493582E+03 -0.70030237188E+01  0.76273014025E+03  0.78903065665E+03  0.17430000000E+03 0. -1.
       -6    1    1    2    0  503 -0.10189493582E+03  0.70030237188E+01  0.62825752415E+03  0.65993910850E+03  0.17430000000E+03 0. -1.
</event>
<event>
 4 661  0.7533903E-01  0.9118800E+02  0.7818608E-02  0.1300000E+00
       21   -1    0    0  501  502  0.00000000000E+00  0.00000000000E+00  0.36443896430E+02  0.36443896430E+02  0.00000000000E+00 0. -1.
       21   -1    0    0  502  503  0.00000000000E+00  0.00000000000E+00 -0.18504462621E+04  0.18504462621E+04  0.00000000000E+00 0. -1.
        6    1    1    2  501    0 -0.47908052419E+02  0.18442656342E+00 -0.22964530843E+03  0.29225446649E+03  0.17430000000E+03 0. -1.
       -6    1    1    2    0  503  0.47908052419E+02 -0.18442656342E+00 -0.15843570573E+04  0.15946356921E+04  0.17430000000E+03 0. -1.
</event>
<event>
 4 661  0.7533903E-01  0.9118800E+02  0.7818608E-02  0.1300000E+00
       21   -1    0    0  501  502  0.00000000000E+00  0.00000000000E+00  0.27906099712E+03  0.27906099712E+03  0.00000000000E+00 0. -1.
       21   -1    0    0  502  503  0.00000000000E+00  0.00000000000E+00 -0.14130480856E+03  0.14130480856E+03  0.00000000000E+00 0.  1.
        6    1    1    2  501    0  0.77809352792E+02 -0.30344301700E+01  0.11014133996E+02  0.19122056452E+03  0.17430000000E+03 0.  1.
       -6    1    1    2    0  503 -0.77809352792E+02  0.30344301700E+01  0.12674205456E+03  0.22914524115E+03  0.17430000000E+03 0. -1.
</event>
<event>
 4 661  0.7533903E-01  0.9118800E+02  0.7818608E-02  0.1300000E+00
       21   -1    0    0  502  503  0.00000000000E+00  0.00000000000E+00  0.19367743300E+02  0.19367743300E+02  0.00000000000E+00 0. -1.
       21   -1    0    0  501  502  0.00000000000E+00  0.00000000000E+00 -0.27229421152E+04  0.27229421152E+04  0.00000000000E+00 0.  1.
        6    1    1    2  501    0  0.62735714360E+02  0.10477430890E+03 -0.18669107302E+04  0.18790022859E+04  0.17430000000E+03 0. -1.
       -6    1    1    2    0  503 -0.62735714360E+02 -0.10477430890E+03 -0.83666364165E+03  0.86330757261E+03  0.17430000000E+03 0. -1.
</event>
<event>
 4 661  0.7533903E-01  0.9118800E+02  0.7818608E-02  0.1300000E+00
       21   -1    0    0  502  503  0.00000000000E+00  0.00000000000E+00  0.90294986958E+03  0.90294986958E+03  0.00000000000E+00 0. -1.
       21   -1    0    0  501  502  0.00000000000E+00  0.00000000000E+00 -0.47627063472E+02  0.47627063472E+02  0.00000000000E+00 0.  1.
        6    1    1    2  501    0 -0.83974561568E+02 -0.74153531983E+02  0.40796060108E+03  0.45756181586E+03  0.17430000000E+03 0. -1.
       -6    1    1    2    0  503  0.83974561568E+02  0.74153531983E+02  0.44736220503E+03  0.49301511720E+03  0.17430000000E+03 0.  1.
</event>
<event>
 4 661  0.7533903E-01  0.9118800E+02  0.7818608E-02  0.1300000E+00
       21   -1    0    0  502  503  0.00000000000E+00  0.00000000000E+00  0.44649199687E+03  0.44649199687E+03  0.00000000000E+00 0. -1.
       21   -1    0    0  501  502  0.00000000000E+00  0.00000000000E+00 -0.10683307338E+03  0.10683307338E+03  0.00000000000E+00 0.  1.
        6    1    1    2  501    0 -0.41827307816E+02  0.72238799765E+02  0.29871243118E+03  0.35577742257E+03  0.17430000000E+03 0. -1.
       -6    1    1    2    0  503  0.41827307816E+02 -0.72238799765E+02  0.40946492313E+02  0.19754764768E+03  0.17430000000E+03 0.  1.
</event>
<event>
 4 661  0.7533903E-01  0.9118800E+02  0.7818608E-02  0.1300000E+00
       21   -1    0    0  502  503  0.00000000000E+00  0.00000000000E+00  0.15883870926E+03  0.15883870926E+03  0.00000000000E+00 0.  1.
       21   -1    0    0  501  502  0.00000000000E+00  0.00000000000E+00 -0.11678812340E+04  0.11678812340E+04  0.00000000000E+00 0. -1.
        6    1    1    2  501    0  0.36245918822E+03 -0.11530777273E+03 -0.66197952985E+03  0.78311553012E+03  0.17430000000E+03 0. -1.
       -6    1    1    2    0  503 -0.36245918822E+03  0.11530777273E+03 -0.34706299493E+03  0.54360441318E+03  0.17430000000E+03 0.  1.
</event>
<event>
 4 661  0.7533903E-01  0.9118800E+02  0.7818608E-02  0.1300000E+00
       21   -1    0    0  501  502  0.00000000000E+00  0.00000000000E+00  0.67949687363E+03  0.67949687363E+03  0.00000000000E+00 0. -1.
       21   -1    0    0  502  503  0.00000000000E+00  0.00000000000E+00 -0.29254674777E+03  0.29254674777E+03  0.00000000000E+00 0.  1.
        6    1    1    2  501    0  0.17028651106E+03  0.90207701571E+02  0.58842839782E+03  0.64324442837E+03  0.17430000000E+03 0. -1.
       -6    1    1    2    0  503 -0.17028651106E+03 -0.90207701571E+02 -0.20147827196E+03  0.32879919304E+03  0.17430000000E+03 0.  1.
</event>
<event>
 4 661  0.7533903E-01  0.9118800E+02  0.7818608E-02  0.1300000E+00
       21   -1    0    0  501  502  0.00000000000E+00  0.00000000000E+00  0.11395905704E+03  0.11395905704E+03  0.00000000000E+00 0.  1.
       21   -1    0    0  502  503  0.00000000000E+00  0.00000000000E+00 -0.31074143503E+03  0.31074143503E+03  0.00000000000E+00 0.  1.
        6    1    1    2  501    0 -0.19432122262E+02 -0.63777170465E+02 -0.12571195077E+03  0.22500915407E+03  0.17430000000E+03 0.  1.
       -6    1    1    2    0  503  0.19432122262E+02  0.63777170465E+02 -0.71070427217E+02  0.19969133800E+03  0.17430000000E+03 0.  1.
</event>
<event>
 4 661  0.7533903E-01  0.9118800E+02  0.7818608E-02  0.1300000E+00
        1   -1    0    0  501    0  0.00000000000E+00  0.00000000000E+00  0.47765747822E+03  0.47765747822E+03  0.00000000000E+00 0.  1.
       -1   -1    0    0    0  502  0.00000000000E+00  0.00000000000E+00 -0.11487149916E+03  0.11487149916E+03  0.00000000000E+00 0. -1.
        6    1    1    2  501    0  0.24678852198E+02  0.12053635081E+03  0.30369591074E+03  0.37114653954E+03  0.17430000000E+03 0.  1.
       -6    1    1    2    0  502 -0.24678852198E+02 -0.12053635081E+03  0.59090068315E+02  0.22138243784E+03  0.17430000000E+03 0. -1.
</event>
<event>
 4 661  0.7533903E-01  0.9118800E+02  0.7818608E-02  0.1300000E+00
       21   -1    0    0  501  502  0.00000000000E+00  0.00000000000E+00  0.26421709283E+03  0.26421709283E+03  0.00000000000E+00 0.  1.
       21   -1    0    0  502  503  0.00000000000E+00  0.00000000000E+00 -0.17724571708E+03  0.17724571708E+03  0.00000000000E+00 0. -1.
        6    1    1    2  501    0 -0.18957546715E+02 -0.12497522373E+03  0.65661094027E+02  0.22510012082E+03  0.17430000000E+03 0.  1.
       -6    1    1    2    0  503  0.18957546715E+02  0.12497522373E+03  0.21310281728E+02  0.21636268909E+03  0.17430000000E+03 0. -1.
</event>
<event>
 4 661  0.7533903E-01  0.9118800E+02  0.7818608E-02  0.1300000E+00
       21   -1    0    0  501  502  0.00000000000E+00  0.00000000000E+00  0.38483126224E+02  0.38483126224E+02  0.00000000000E+00 0.  1.
       21   -1    0    0  502  503  0.00000000000E+00  0.00000000000E+00 -0.13059627853E+04  0.13059627853E+04  0.00000000000E+00 0.  1.
        6    1    1    2  501    0  0.11719841444E+02 -0.31093876872E+02 -0.22289488247E+03  0.28489788082E+03  0.17430000000E+03 0.  1.
       -6    1    1    2    0  503 -0.11719841444E+02  0.31093876872E+02 -0.10445847766E+04  0.10595480307E+04  0.17430000000E+03 0.  1.
</event>
<event>
 4 661  0.7533903E-01  0.9118800E+02  0.7818608E-02  0.1300000E+00
       21   -1    0    0  501  502  0.00000000000E+00  0.00000000000E+00  0.32274124266E+03  0.32274124266E+03  0.00000000000E+00 0. -1.
       21   -1    0    0  502  503  0.00000000000E+00  0.00000000000E+00 -0.29081992306E+03  0.29081992306E+03  0.00000000000E+00 0.  1.
        6    1    1    2  501    0  0.10574834018E+03  0.11655999697E+03  0.21297642454E+03  0.31703058489E+03  0.17430000000E+03 0. -1.
       -6    1    1    2    0  503 -0.10574834018E+03 -0.11655999697E+03 -0.18105510494E+03  0.29653058083E+03  0.17430000000E+03 0.  1.
</event>
<event>
 4 661  0.7533903E-01  0.9118800E+02  0.7818608E-02  0.1300000E+00
       21   -1    0    0  501  502  0.00000000000E+00  0.00000000000E+00  0.72500248890E+02  0.72500248890E+02  0.00000000000E+00 0. -1.
       21   -1    0    0  502  503  0.00000000000E+00  0.00000000000E+00 -0.76864772490E+03  0.76864772490E+03  0.00000000000E+00 0.  1.
        6    1    1    2  501    0  0.50572016485E+02 -0.87534667902E+02 -0.12895338181E+03  0.23922648603E+03  0.17430000000E+03 0. -1.
       -6    1    1    2    0  503 -0.50572016485E+02  0.87534667902E+02 -0.56719409420E+03  0.60192148777E+03  0.17430000000E+03 0.  1.
</event>
<event>
 4 661  0.7533903E-01  0.9118800E+02  0.7818608E-02  0.1300000E+00
       21   -1    0    0  502  503  0.00000000000E+00  0.00000000000E+00  0.14196082333E+03  0.14196082333E+03  0.00000000000E+00 0. -1.
       21   -1    0    0  501  502  0.00000000000E+00  0.00000000000E+00 -0.54526998051E+03  0.54526998051E+03  0.00000000000E+00 0. -1.
        6    1    1    2  501    0  0.26409337773E+02  0.11109761453E+03 -0.42933980427E+03  0.47723504754E+03  0.17430000000E+03 0. -1.
       -6    1    1    2    0  503 -0.26409337773E+02 -0.11109761453E+03  0.26030647080E+02  0.20999575630E+03  0.17430000000E+03 0. -1.
</event>
<event>
 4 661  0.7533903E-01  0.9118800E+02  0.7818608E-02  0.1300000E+00
       21   -1    0    0  501  502  0.00000000000E+00  0.00000000000E+00  0.27271264987E+03  0.27271264987E+03  0.00000000000E+00 0. -1.
       21   -1    0    0  502  503  0.00000000000E+00  0.00000000000E+00 -0.14112362411E+03  0.14112362411E+03  0.00000000000E+00 0. -1.
        6    1    1    2  501    0 -0.53993316266E+02  0.24234193988E+02  0.13735492372E+03  0.22967246119E+03  0.17430000000E+03 0. -1.
       -6    1    1    2    0  503  0.53993316266E+02 -0.24234193988E+02 -0.57658979557E+01  0.18416381278E+03  0.17430000000E+03 0. -1.
</event>
<event>
 4 661  0.7533903E-01  0.9118800E+02  0.7818608E-02  0.1300000E+00
       21   -1    0    0  501  502  0.00000000000E+00  0.00000000000E+00  0.22651246083E+03  0.22651246083E+03  0.00000000000E+00 0. -1.
       21   -1    0    0  502  503  0.00000000000E+00  0.00000000000E+00 -0.20328032204E+03  0.20328032204E+03  0.00000000000E+00 0. -1.
        6    1    1    2  501    0 -0.11205691475E+03  0.30767521500E+02 -0.34945481251E+02  0.21237954040E+03  0.17430000000E+03 0. -1.
       -6    1    1    2    0  503  0.11205691475E+03 -0.30767521500E+02  0.58177620044E+02  0.21741324246E+03  0.17430000000E+03 0. -1.
</event>
<event>
 4 661  0.7533903E-01  0.9118800E+02  0.7818608E-02  0.1300000E+00
       -2   -1    0    0    0  502  0.00000000000E+00  0.00000000000E+00  0.20221623647E+03  0.20221623647E+03  0.00000000000E+00 0. -1.
        2   -1    0    0  501    0  0.00000000000E+00  0.00000000000E+00 -0.39080558248E+03  0.39080558248E+03  0.00000000000E+00 0.  1.
        6    1    1    2  501    0 -0.19424952060E+03  0.10372292697E+03 -0.81145183767E+02  0.29232918547E+03  0.17430000000E+03 0. -1.
       -6    1    1    2    0  502  0.19424952060E+03 -0.10372292697E+03 -0.10744416224E+03  0.30069263348E+03  0.17430000000E+03 0.  1.
</event>
<event>
 4 661  0.7533903E-01  0.9118800E+02  0.7818608E-02  0.1300000E+00
       21   -1    0    0  502  503  0.00000000000E+00  0.00000000000E+00  0.12447516246E+04  0.12447516246E+04  0.00000000000E+00 0. -1.
       21   -1    0    0  501  502  0.00000000000E+00  0.00000000000E+00 -0.20756451177E+03  0.20756451177E+03  0.00000000000E+00 0.  1.
        6    1    1    2  501    0 -0.24277633808E+03  0.18689954631E+03 -0.45854329165E+01  0.35252419341E+03  0.17430000000E+03 0.  1.
       -6    1    1    2    0  503  0.24277633808E+03 -0.18689954631E+03  0.10417725457E+04  0.10997919430E+04  0.17430000000E+03 0. -1.
</event>
<event>
 4 661  0.7533903E-01  0.9118800E+02  0.7818608E-02  0.1300000E+00
       21   -1    0    0  502  503  0.00000000000E+00  0.00000000000E+00  0.79767448738E+02  0.79767448738E+02  0.00000000000E+00 0.  1.
       21   -1    0    0  501  502  0.00000000000E+00  0.00000000000E+00 -0.91534007966E+03  0.91534007966E+03  0.00000000000E+00 0.  1.
        6    1    1    2  501    0 -0.10909359443E+03  0.48236966028E+01 -0.74046478068E+03  0.76850065831E+03  0.17430000000E+03 0.  1.
       -6    1    1    2    0  503  0.10909359443E+03 -0.48236966028E+01 -0.95107850242E+02  0.22660687009E+03  0.17430000000E+03 0.  1.
</event>
<event>
 4 661  0.7533903E-01  0.9118800E+02  0.7818608E-02  0.1300000E+00
       21   -1    0    0  501  502  0.00000000000E+00  0.00000000000E+00  0.19048097790E+03  0.19048097790E+03  0.00000000000E+00 0. -1.
       21   -1    0    0  502  503  0.00000000000E+00  0.00000000000E+00 -0.34422909291E+03  0.34422909291E+03  0.00000000000E+00 0.  1.
        6    1    1    2  501    0 -0.19528115031E+02 -0.12555998984E+03  0.67202870358E+02  0.22592780730E+03  0.17430000000E+03 0. -1.
       -6    1    1    2    0  503  0.19528115031E+02  0.12555998984E+03 -0.22095098536E+03  0.30878226351E+03  0.17430000000E+03 0.  1.
</event>
<event>
 4 661  0.7533903E-01  0.9118800E+02  0.7818608E-02  0.1300000E+00
       21   -1    0    0  502  503  0.00000000000E+00  0.00000000000E+00  0.83797035861E+03  0.83797035861E+03  0.00000000000E+00 0. -1.
       21   -1    0    0  501  502  0.00000000000E+00  0.00000000000E+00 -0.60414277574E+02  0.60414277574E+02  0.00000000000E+00 0. -1.
        6    1    1    2  501    0  0.18252475601E+02  0.11040492388E+03  0.21333881530E+03  0.29734885269E+03  0.17430000000E+03 0. -1.
       -6    1    1    2    0  503 -0.18252475601E+02 -0.11040492388E+03  0.56421726573E+03  0.60103578349E+03  0.17430000000E+03 0. -1.
</event>
<event>
 4 661  0.7533903E-01  0.9118800E+02  0.7818608E-02  0.1300000E+00
       21   -1    0    0  502  503  0.00000000000E+00  0.00000000000E+00  0.13919345756E+03  0.13919345756E+03  0.00000000000E+00 0. -1.
       21   -1    0    0  501  502  0.00000000000E+00  0.00000000000E+00 -0.35329041393E+03  0.35329041393E+03  0.00000000000E+00 0.  1.
        6    1    1    2  501    0  0.12601648428E+02  0.69434869679E+02 -0.23756503426E+03  0.30298125053E+03  0.17430000000E+03 0.  1.
       -6    1    1    2    0  503 -0.12601648428E+02 -0.69434869679E+02  0.23468077885E+02  0.18950262096E+03  0.17430000000E+03 0. -1.
</event>
<event>
 4 661  0.7533903E-01  0.9118800E+02  0.7818608E-02  0.1300000E+00
       21   -1    0    0  501  502  0.00000000000E+00  0.00000000000E+00  0.24846486256E+03  0.24846486256E+03  0.00000000000E+00 0. -1.
       21   -1    0    0  502  503  0.00000000000E+00  0.00000000000E+00 -0.18855203015E+03  0.18855203015E+03  0.00000000000E+00 0. -1.
        6    1    1    2  501    0 -0.11550627603E+03  0.98785877663E+01 -0.25602510911E+02  0.21089159505E+03  0.17430000000E+03 0. -1.
       -6    1    1    2    0  503  0.11550627603E+03 -0.98785877663E+01  0.85515343322E+02  0.22612529766E+03  0.17430000000E+03 0. -1.
</event>
<event>
 4 661  0.7533903E-01  0.9118800E+02  0.7818608E-02  0.1300000E+00
       21   -1    0    0  501  502  0.00000000000E+00  0.00000000000E+00  0.33772051945E+02  0.33772051945E+02  0.00000000000E+00 0. -1.
       21   -1    0    0  502  503  0.00000000000E+00  0.00000000000E+00 -0.97409746078E+03  0.97409746078E+03  0.00000000000E+00 0. -1.
        6    1    1    2  501    0 -0.43558444097E+02 -0.23460296440E+02 -0.49325125191E+03  0.52547598525E+03  0.17430000000E+03 0. -1.
       -6    1    1    2    0  503  0.43558444097E+02  0.23460296440E+02 -0.44707415692E+03  0.48239352747E+03  0.17430000000E+03 0. -1.
</event>
<event>
 4 661  0.7533903E-01  0.9118800E+02  0.7818608E-02  0.1300000E+00
       21   -1    0    0  501  502  0.00000000000E+00  0.00000000000E+00  0.49070955407E+03  0.49070955407E+03  0.00000000000E+00 0. -1.
       21   -1    0    0  502  503  0.00000000000E+00  0.00000000000E+00 -0.14442947618E+03  0.14442947618E+03  0.00000000000E+00 0.  1.
        6    1    1    2  501    0 -0.12340716309E+03 -0.12757569378E+03  0.28622874886E+03  0.37922588548E+03  0.17430000000E+03 0. -1.
       -6    1    1    2    0  503  0.12340716309E+03  0.12757569378E+03  0.60051329030E+02  0.25591314476E+03  0.17430000000E+03 0.  1.
</event>
<event>
 4 661  0.7533903E-01  0.9118800E+02  0.7818608E-02  0.1300000E+00
       21   -1    0    0  501  502  0.00000000000E+00  0.00000000000E+00  0.22014001286E+03  0.22014001286E+03  0.00000000000E+00 0. -1.
       21   -1    0    0  502  503  0.00000000000E+00  0.00000000000E+00 -0.17452899784E+03  0.17452899784E+03  0.00000000000E+00 0. -1.
        6    1    1    2  501    0  0.57792354533E+02 -0.84393769602E+01  0.91302294917E+02  0.20525052590E+03  0.17430000000E+03 0. -1.
       -6    1    1    2    0  503 -0.57792354533E+02  0.84393769602E+01 -0.45691279895E+02  0.18941848480E+03  0.17430000000E+03 0. -1.
</event>
<event>
 4 661  0.7533903E-01  0.9118800E+02  0.7818608E-02  0.1300000E+00
       21   -1    0    0  501  502  0.00000000000E+00  0.00000000000E+00  0.35753699737E+03  0.35753699737E+03  0.00000000000E+00 0. -1.
       21   -1    0    0  502  503  0.00000000000E+00  0.00000000000E+00 -0.33528155913E+03  0.33528155913E+03  0.00000000000E+00 0. -1.
        6    1    1    2  501    0  0.12097531431E+03  0.18125678606E+03  0.21618725465E+03  0.35299641392E+03  0.17430000000E+03 0. -1.
       -6    1    1    2    0  503 -0.12097531431E+03 -0.18125678606E+03 -0.19393181641E+03  0.33982214257E+03  0.17430000000E+03 0. -1.
</event>
<event>
 4 661  0.7533903E-01  0.9118800E+02  0.7818608E-02  0.1300000E+00
        2   -1    0    0  501    0  0.00000000000E+00  0.00000000000E+00  0.69294232920E+03  0.69294232920E+03  0.00000000000E+00 0. -1.
       -2   -1    0    0    0  502  0.00000000000E+00  0.00000000000E+00 -0.73178275345E+02  0.73178275345E+02  0.00000000000E+00 0.  1.
        6    1    1    2  501    0  0.10089269134E+03  0.92460826121E+02  0.24184913001E+03  0.32802413207E+03  0.17430000000E+03 0. -1.
       -6    1    1    2    0  502 -0.10089269134E+03 -0.92460826121E+02  0.37791492385E+03  0.43809647248E+03  0.17430000000E+03 0. -1.
</event>
<event>
 4 661  0.7533903E-01  0.9118800E+02  0.7818608E-02  0.1300000E+00
       21   -1    0    0  502  503  0.00000000000E+00  0.00000000000E+00  0.30068477113E+03  0.30068477113E+03  0.00000000000E+00 0. -1.
       21   -1    0    0  501  502  0.00000000000E+00  0.00000000000E+00 -0.15286087343E+03  0.15286087343E+03  0.00000000000E+00 0.  1.
        6    1    1    2  501    0  0.11205956859E+03 -0.52294815928E+02  0.91935882225E+02  0.23264735358E+03  0.17430000000E+03 0.  1.
       -6    1    1    2    0  503 -0.11205956859E+03  0.52294815928E+02  0.55888015473E+02  0.22089829098E+03  0.17430000000E+03 0.  1.
</event>
<event>
 4 661  0.7533903E-01  0.9118800E+02  0.7818608E-02  0.1300000E+00
       -2   -1    0    0    0  502  0.00000000000E+00  0.00000000000E+00  0.24114660631E+03  0.24114660631E+03  0.00000000000E+00 0. -1.
        2   -1    0    0  501    0  0.00000000000E+00  0.00000000000E+00 -0.23950446451E+03  0.23950446451E+03  0.00000000000E+00 0.  1.
        6    1    1    2  501    0  0.12407378799E+03  0.95965823728E+02  0.53465984931E+02  0.24050539648E+03  0.17430000000E+03 0. -1.
       -6    1    1    2    0  502 -0.12407378799E+03 -0.95965823728E+02 -0.51823843128E+02  0.24014567435E+03  0.17430000000E+03 0.  1.
</event>
<event>
 4 661  0.7533903E-01  0.9118800E+02  0.7818608E-02  0.1300000E+00
        1   -1    0    0  501    0  0.00000000000E+00  0.00000000000E+00  0.17907606011E+04  0.17907606011E+04  0.00000000000E+00 0. -1.
       -1   -1    0    0    0  502  0.00000000000E+00  0.00000000000E+00 -0.56159052741E+02  0.56159052741E+02  0.00000000000E+00 0.  1.
        6    1    1    2  501    0  0.23780131463E+03  0.51939708155E+02  0.11718746619E+04  0.12095114351E+04  0.17430000000E+03 0.  1.
       -6    1    1    2    0  502 -0.23780131463E+03 -0.51939708155E+02  0.56272688644E+03  0.63740821868E+03  0.17430000000E+03 0. -1.
</event>
<event>
 4 661  0.7533903E-01  0.9118800E+02  0.7818608E-02  0.1300000E+00
       21   -1    0    0  501  502  0.00000000000E+00  0.00000000000E+00  0.16347897867E+04  0.16347897867E+04  0.00000000000E+00 0.  1.
       21   -1    0    0  502  503  0.00000000000E+00  0.00000000000E+00 -0.70853545988E+02  0.70853545988E+02  0.00000000000E+00 0. -1.
        6    1    1    2  501    0  0.23014798886E+02  0.14460638545E+03  0.14159379743E+04  0.14341204708E+04  0.17430000000E+03 0.  1.
       -6    1    1    2    0  503 -0.23014798886E+02 -0.14460638545E+03  0.14799826645E+03  0.27152286194E+03  0.17430000000E+03 0. -1.
</event>
<event>
 4 661  0.7533903E-01  0.9118800E+02  0.7818608E-02  0.1300000E+00
       21   -1    0    0  501  502  0.00000000000E+00  0.00000000000E+00  0.18064438743E+03  0.18064438743E+03  0.00000000000E+00 0. -1.
       21   -1    0    0  502  503  0.00000000000E+00  0.00000000000E+00 -0.17220998942E+03  0.17220998942E+03  0.00000000000E+00 0. -1.
        6    1    1    2  501    0  0.13079402136E+02  0.23377180869E+02  0.74914664589E+01  0.17650545435E+03  0.17430000000E+03 0. -1.
       -6    1    1    2    0  503 -0.13079402136E+02 -0.23377180869E+02  0.94293154932E+00  0.17634892250E+03  0.17430000000E+03 0. -1.
</event>
<event>
 4 661  0.7533903E-01  0.9118800E+02  0.7818608E-02  0.1300000E+00
       21   -1    0    0  501  502  0.00000000000E+00  0.00000000000E+00  0.15802206964E+03  0.15802206964E+03  0.00000000000E+00 0. -1.
       21   -1    0    0  502  503  0.00000000000E+00  0.00000000000E+00 -0.19649160715E+03  0.19649160715E+03  0.00000000000E+00 0. -1.
        6    1    1    2  501    0 -0.18912227422E+01 -0.98634092145E+01 -0.43222946958E+02  0.17985988076E+03  0.17430000000E+03 0. -1.
       -6    1    1    2    0  503  0.18912227422E+01  0.98634092145E+01  0.47534094444E+01  0.17465379603E+03  0.17430000000E+03 0. -1.
</event>
<event>
 4 661  0.7533903E-01  0.9118800E+02  0.7818608E-02  0.1300000E+00
       21   -1    0    0  501  502  0.00000000000E+00  0.00000000000E+00  0.46810664801E+03  0.46810664801E+03  0.00000000000E+00 0. -1.
       21   -1    0    0  502  503  0.00000000000E+00  0.00000000000E+00 -0.81027212306E+02  0.81027212306E+02  0.00000000000E+00 0. -1.
        6    1    1    2  501    0  0.21570936895E+02  0.78580983992E+02  0.23603583234E+03  0.30452205259E+03  0.17430000000E+03 0. -1.
       -6    1    1    2    0  503 -0.21570936895E+02 -0.78580983992E+02  0.15104360337E+03  0.24461180773E+03  0.17430000000E+03 0. -1.
</event>
<event>
 4 661  0.7533903E-01  0.9118800E+02  0.7818608E-02  0.1300000E+00
       21   -1    0    0  502  503  0.00000000000E+00  0.00000000000E+00  0.15818993530E+03  0.15818993530E+03  0.00000000000E+00 0.  1.
       21   -1    0    0  501  502  0.00000000000E+00  0.00000000000E+00 -0.30554967291E+03  0.30554967291E+03  0.00000000000E+00 0.  1.
        6    1    1    2  501    0  0.18213034850E+02  0.70397378579E+02 -0.19237934842E+03  0.26958822164E+03  0.17430000000E+03 0.  1.
       -6    1    1    2    0  503 -0.18213034850E+02 -0.70397378579E+02  0.45019610812E+02  0.19415138657E+03  0.17430000000E+03 0.  1.
</event>
<event>
 4 661  0.7533903E-01  0.9118800E+02  0.7818608E-02  0.1300000E+00
       21   -1    0    0  501  502  0.00000000000E+00  0.00000000000E+00  0.37476292703E+03  0.37476292703E+03  0.00000000000E+00 0. -1.
       21   -1    0    0  502  503  0.00000000000E+00  0.00000000000E+00 -0.13479928639E+03  0.13479928639E+03  0.00000000000E+00 0.  1.
        6    1    1    2  501    0 -0.10530035793E+03  0.92499457266E+02  0.94813430815E+02  0.24292877894E+03  0.17430000000E+03 0.  1.
       -6    1    1    2    0  503  0.10530035793E+03 -0.92499457266E+02  0.14515020982E+03  0.26663343448E+03  0.17430000000E+03 0. -1.
</event>
<event>
 4 661  0.7533903E-01  0.9118800E+02  0.7818608E-02  0.1300000E+00
       21   -1    0    0  502  503  0.00000000000E+00  0.00000000000E+00  0.67789887229E+02  0.67789887229E+02  0.00000000000E+00 0.  1.
       21   -1    0    0  501  502  0.00000000000E+00  0.00000000000E+00 -0.17405353328E+04  0.17405353328E+04  0.00000000000E+00 0. -1.
        6    1    1    2  501    0  0.15375859780E+02 -0.11726124053E+03 -0.15505913231E+04  0.15648324373E+04  0.17430000000E+03 0. -1.
       -6    1    1    2    0  503 -0.15375859780E+02  0.11726124053E+03 -0.12215412245E+03  0.24349278270E+03  0.17430000000E+03 0.  1.
</event>
<event>
 4 661  0.7533903E-01  0.9118800E+02  0.7818608E-02  0.1300000E+00
       21   -1    0    0  501  502  0.00000000000E+00  0.00000000000E+00  0.31616262051E+03  0.31616262051E+03  0.00000000000E+00 0. -1.
       21   -1    0    0  502  503  0.00000000000E+00  0.00000000000E+00 -0.40800082431E+03  0.40800082431E+03  0.00000000000E+00 0.  1.
        6    1    1    2  501    0  0.18732010378E+03 -0.37819320949E+02  0.20529795759E+03  0.33022244579E+03  0.17430000000E+03 0. -1.
       -6    1    1    2    0  503 -0.18732010378E+03  0.37819320949E+02 -0.29713616139E+03  0.39394099903E+03  0.17430000000E+03 0.  1.
</event>
<event>
 4 661  0.7533903E-01  0.9118800E+02  0.7818608E-02  0.1300000E+00
       -2   -1    0    0    0  502  0.00000000000E+00  0.00000000000E+00  0.12447655345E+02  0.12447655345E+02  0.00000000000E+00 0. -1.
        2   -1    0    0  501    0  0.00000000000E+00  0.00000000000E+00 -0.34389930032E+04  0.34389930032E+04  0.00000000000E+00 0.  1.
        6    1    1    2  501    0 -0.28821612936E+02 -0.65502132823E+02 -0.10003511018E+04  0.10179410747E+04  0.17430000000E+03 0. -1.
       -6    1    1    2    0  502  0.28821612936E+02  0.65502132823E+02 -0.24261942461E+04  0.24334995839E+04  0.17430000000E+03 0.  1.
</event>
<event>
 4 661  0.7533903E-01  0.9118800E+02  0.7818608E-02  0.1300000E+00
       21   -1    0    0  502  503  0.00000000000E+00  0.00000000000E+00  0.88468074614E+03  0.88468074614E+03  0.00000000000E+00 0.  1.
       21   -1    0    0  501  502  0.00000000000E+00  0.00000000000E+00 -0.89262892264E+02  0.89262892264E+02  0.00000000000E+00 0. -1.
        6    1    1    2  501    0 -0.10117101330E+03  0.39345915008E+02  0.65257302908E+02  0.21545923174E+03  0.17430000000E+03 0. -1.
       -6    1    1    2    0  503  0.10117101330E+03 -0.39345915008E+02  0.73016055097E+03  0.75848440666E+03  0.17430000000E+03 0.  1.
</event>
<event>
 4 661  0.7533903E-01  0.9118800E+02  0.7818608E-02  0.1300000E+00
       21   -1    0    0  501  502  0.00000000000E+00  0.00000000000E+00  0.26166713370E+03  0.26166713370E+03  0.00000000000E+00 0. -1.
       21   -1    0    0  502  503  0.00000000000E+00  0.00000000000E+00 -0.12226490376E+03  0.12226490376E+03  0.00000000000E+00 0. -1.
        6    1    1    2  501    0  0.25380117993E+02  0.17219388846E+02  0.97513677725E+02  0.20206450724E+03  0.17430000000E+03 0.  1.
       -6    1    1    2    0  503 -0.25380117993E+02 -0.17219388846E+02  0.41888552218E+02  0.18186753022E+03  0.17430000000E+03 0.  1.
</event>
<event>
 4 661  0.7533903E-01  0.9118800E+02  0.7818608E-02  0.1300000E+00
       21   -1    0    0  502  503  0.00000000000E+00  0.00000000000E+00  0.54608524819E+03  0.54608524819E+03  0.00000000000E+00 0. -1.
       21   -1    0    0  501  502  0.00000000000E+00  0.00000000000E+00 -0.75648403679E+02  0.75648403679E+02  0.00000000000E+00 0.  1.
        6    1    1    2  501    0 -0.49039693408E+02  0.92300854133E+02  0.23885334570E+03  0.31361720290E+03  0.17430000000E+03 0.  1.
       -6    1    1    2    0  503  0.49039693408E+02 -0.92300854133E+02  0.23158349881E+03  0.30811644897E+03  0.17430000000E+03 0. -1.
</event>
<event>
 4 661  0.7533903E-01  0.9118800E+02  0.7818608E-02  0.1300000E+00
       21   -1    0    0  501  502  0.00000000000E+00  0.00000000000E+00  0.27074713298E+03  0.27074713298E+03  0.00000000000E+00 0. -1.
       21   -1    0    0  502  503  0.00000000000E+00  0.00000000000E+00 -0.22976242835E+03  0.22976242835E+03  0.00000000000E+00 0.  1.
        6    1    1    2  501    0 -0.86384094537E+02 -0.15156583051E+03  0.57935868886E+02  0.25332087887E+03  0.17430000000E+03 0.  1.
       -6    1    1    2    0  503  0.86384094537E+02  0.15156583051E+03 -0.16951164252E+02  0.24718868246E+03  0.17430000000E+03 0.  1.
</event>
<event>
 4 661  0.7533903E-01  0.9118800E+02  0.7818608E-02  0.1300000E+00
       21   -1    0    0  502  503  0.00000000000E+00  0.00000000000E+00  0.57743360693E+02  0.57743360693E+02  0.00000000000E+00 0.  1.
       21   -1    0    0  501  502  0.00000000000E+00  0.00000000000E+00 -0.71451369694E+03  0.71451369694E+03  0.00000000000E+00 0.  1.
        6    1    1    2  501    0 -0.72805539008E+01 -0.18039175894E+02 -0.52317226148E+03  0.55178630240E+03  0.17430000000E+03 0.  1.
       -6    1    1    2    0  503  0.72805539008E+01  0.18039175894E+02 -0.13359807476E+03  0.22047075523E+03  0.17430000000E+03 0.  1.
</event>
<event>
 4 661  0.7533903E-01  0.9118800E+02  0.7818608E-02  0.1300000E+00
       21   -1    0    0  502  503  0.00000000000E+00  0.00000000000E+00  0.19037911846E+02  0.19037911846E+02  0.00000000000E+00 0.  1.
       21   -1    0    0  501  502  0.00000000000E+00  0.00000000000E+00 -0.24508127988E+04  0.24508127988E+04  0.00000000000E+00 0.  1.
        6    1    1    2  501    0 -0.20301278378E+02  0.11817486098E+03 -0.14651182548E+04  0.14803139634E+04  0.17430000000E+03 0.  1.
       -6    1    1    2    0  503  0.20301278378E+02 -0.11817486098E+03 -0.96665663216E+03  0.98953674726E+03  0.17430000000E+03 0.  1.
</event>
<event>
 4 661  0.7533903E-01  0.9118800E+02  0.7818608E-02  0.1300000E+00
       21   -1    0    0  502  503  0.00000000000E+00  0.00000000000E+00  0.31383387402E+03  0.31383387402E+03  0.00000000000E+00 0.  1.
       21   -1    0    0  501  502  0.00000000000E+00  0.00000000000E+00 -0.28795860503E+03  0.28795860503E+03  0.00000000000E+00 0.  1.
        6    1    1    2  501    0  0.95952737351E+00 -0.24432543418E+03 -0.42490515434E+01  0.30015726365E+03  0.17430000000E+03 0.  1.
       -6    1    1    2    0  503 -0.95952737351E+00  0.24432543418E+03  0.30124320530E+02  0.30163521540E+03  0.17430000000E+03 0.  1.
</event>
<event>
 4 661  0.7533903E-01  0.9118800E+02  0.7818608E-02  0.1300000E+00
       21   -1    0    0  501  502  0.00000000000E+00  0.00000000000E+00  0.11722951311E+03  0.11722951311E+03  0.00000000000E+00 0.  1.
       21   -1    0    0  502  503  0.00000000000E+00  0.00000000000E+00 -0.40780955341E+03  0.40780955341E+03  0.00000000000E+00 0. -1.
        6    1    1    2  501    0  0.11991159457E+03 -0.52793023573E+02 -0.12589555838E+03  0.25178577297E+03  0.17430000000E+03 0.  1.
       -6    1    1    2    0  503 -0.11991159457E+03  0.52793023573E+02 -0.16468448192E+03  0.27325329355E+03  0.17430000000E+03 0. -1.
</event>
<event>
 4 661  0.7533903E-01  0.9118800E+02  0.7818608E-02  0.1300000E+00
       21   -1    0    0  501  502  0.00000000000E+00  0.00000000000E+00  0.94546905059E+02  0.94546905059E+02  0.00000000000E+00 0. -1.
       21   -1    0    0  502  503  0.00000000000E+00  0.00000000000E+00 -0.35610341303E+03  0.35610341303E+03  0.00000000000E+00 0. -1.
        6    1    1    2  501    0 -0.23787912133E+01 -0.10561030329E+02 -0.61629906240E+02  0.18519160173E+03  0.17430000000E+03 0. -1.
       -6    1    1    2    0  503  0.23787912133E+01  0.10561030329E+02 -0.19992660173E+03  0.26545871636E+03  0.17430000000E+03 0. -1.
</event>
<event>
 4 661  0.7533903E-01  0.9118800E+02  0.7818608E-02  0.1300000E+00
       21   -1    0    0  501  502  0.00000000000E+00  0.00000000000E+00  0.24889823166E+02  0.24889823166E+02  0.00000000000E+00 0. -1.
       21   -1    0    0  502  503  0.00000000000E+00  0.00000000000E+00 -0.15360466406E+04  0.15360466406E+04  0.00000000000E+00 0. -1.
        6    1    1    2  501    0  0.11131621826E+02  0.74057657633E+02 -0.94461929873E+03  0.96348044048E+03  0.17430000000E+03 0. -1.
       -6    1    1    2    0  503 -0.11131621826E+02 -0.74057657633E+02 -0.56653751869E+03  0.59745602327E+03  0.17430000000E+03 0. -1.
</event>
<event>
 4 661  0.7533903E-01  0.9118800E+02  0.7818608E-02  0.1300000E+00
       21   -1    0    0  502  503  0.00000000000E+00  0.00000000000E+00  0.23690844667E+03  0.23690844667E+03  0.00000000000E+00 0.  1.
       21   -1    0    0  501  502  0.00000000000E+00  0.00000000000E+00 -0.49649055710E+03  0.49649055710E+03  0.00000000000E+00 0.  1.
        6    1    1    2  501    0 -0.19729800573E+03 -0.95305620407E+02 -0.34157273358E+03  0.44165833703E+03  0.17430000000E+03 0.  1.
       -6    1    1    2    0  503  0.19729800573E+03  0.95305620407E+02  0.81990623158E+02  0.29174066674E+03  0.17430000000E+03 0.  1.
</event>
<event>
 4 661  0.7533903E-01  0.9118800E+02  0.7818608E-02  0.1300000E+00
       21   -1    0    0  501  502  0.00000000000E+00  0.00000000000E+00  0.89414341510E+02  0.89414341510E+02  0.00000000000E+00 0. -1.
       21   -1    0    0  502  503  0.00000000000E+00  0.00000000000E+00 -0.15430522143E+04  0.15430522143E+04  0.00000000000E+00 0.  1.
        6    1    1    2  501    0  0.11803924588E+03 -0.23821351263E+03 -0.30463506989E+03  0.44029757775E+03  0.17430000000E+03 0. -1.
       -6    1    1    2    0  503 -0.11803924588E+03  0.23821351263E+03 -0.11490028029E+04  0.11921689781E+04  0.17430000000E+03 0.  1.
</event>
<event>
 4 661  0.7533903E-01  0.9118800E+02  0.7818608E-02  0.1300000E+00
       21   -1    0    0  502  503  0.00000000000E+00  0.00000000000E+00  0.43004132975E+03  0.43004132975E+03  0.00000000000E+00 0.  1.
       21   -1    0    0  501  502  0.00000000000E+00  0.00000000000E+00 -0.19485907465E+03  0.19485907465E+03  0.00000000000E+00 0.  1.
        6    1    1    2  501    0 -0.13400385344E+03 -0.94461985894E+02 -0.58237752695E+02  0.24627672516E+03  0.17430000000E+03 0.  1.
       -6    1    1    2    0  503  0.13400385344E+03  0.94461985894E+02  0.29342000779E+03  0.37862367925E+03  0.17430000000E+03 0.  1.
</event>
<event>
 4 661  0.7533903E-01  0.9118800E+02  0.7818608E-02  0.1300000E+00
       21   -1    0    0  502  503  0.00000000000E+00  0.00000000000E+00  0.83995573500E+02  0.83995573500E+02  0.00000000000E+00 0.  1.
       21   -1    0    0  501  502  0.00000000000E+00  0.00000000000E+00 -0.91067165463E+03  0.91067165463E+03  0.00000000000E+00 0. -1.
        6    1    1    2  501    0 -0.72178000404E+02 -0.14800048892E+03 -0.66119074849E+03  0.70332602991E+03  0.17430000000E+03 0. -1.
       -6    1    1    2    0  503  0.72178000404E+02  0.14800048892E+03 -0.16548533264E+03  0.29134119822E+03  0.17430000000E+03 0.  1.
</event>
<event>
 4 661  0.7533903E-01  0.9118800E+02  0.7818608E-02  0.1300000E+00
       21   -1    0    0  501  502  0.00000000000E+00  0.00000000000E+00  0.29837566186E+03  0.29837566186E+03  0.00000000000E+00 0.  1.
       21   -1    0    0  502  503  0.00000000000E+00  0.00000000000E+00 -0.14112807228E+03  0.14112807228E+03  0.00000000000E+00 0. -1.
        6    1    1    2  501    0  0.38593466804E+02  0.25486361423E+01  0.18695165305E+03  0.25850988724E+03  0.17430000000E+03 0.  1.
       -6    1    1    2    0  503 -0.38593466804E+02 -0.25486361423E+01 -0.29704063469E+02  0.18099384689E+03  0.17430000000E+03 0. -1.
</event>
<event>
 4 661  0.7533903E-01  0.9118800E+02  0.7818608E-02  0.1300000E+00
       21   -1    0    0  502  503  0.00000000000E+00  0.00000000000E+00  0.83261106520E+03  0.83261106520E+03  0.00000000000E+00 0.  1.
       21   -1    0    0  501  502  0.00000000000E+00  0.00000000000E+00 -0.13463013981E+03  0.13463013981E+03  0.00000000000E+00 0.  1.
        6    1    1    2  501    0 -0.47663831443E+02 -0.88235196971E+02 -0.37680135207E+02  0.20459123491E+03  0.17430000000E+03 0.  1.
       -6    1    1    2    0  503  0.47663831443E+02  0.88235196971E+02  0.73566106060E+03  0.76264997010E+03  0.17430000000E+03 0.  1.
</event>
<event>
 4 661  0.7533903E-01  0.9118800E+02  0.7818608E-02  0.1300000E+00
       21   -1    0    0  502  503  0.00000000000E+00  0.00000000000E+00  0.56877980591E+03  0.56877980591E+03  0.00000000000E+00 0.  1.
       21   -1    0    0  501  502  0.00000000000E+00  0.00000000000E+00 -0.90532281910E+02  0.90532281910E+02  0.00000000000E+00 0. -1.
        6    1    1    2  501    0  0.13504403058E+03 -0.19356888565E+02  0.16647431763E+03  0.27695806137E+03  0.17430000000E+03 0. -1.
       -6    1    1    2    0  503 -0.13504403058E+03  0.19356888565E+02  0.31177320637E+03  0.38235402644E+03  0.17430000000E+03 0.  1.
</event>
<event>
 4 661  0.7533903E-01  0.9118800E+02  0.7818608E-02  0.1300000E+00
       21   -1    0    0  502  503  0.00000000000E+00  0.00000000000E+00  0.18031930575E+04  0.18031930575E+04  0.00000000000E+00 0.  1.
       21   -1    0    0  501  502  0.00000000000E+00  0.00000000000E+00 -0.26728576343E+02  0.26728576343E+02  0.00000000000E+00 0.  1.
        6    1    1    2  501    0 -0.29008319974E+02  0.56163422685E+02  0.39827854015E+03  0.43932004076E+03  0.17430000000E+03 0.  1.
       -6    1    1    2    0  503  0.29008319974E+02 -0.56163422685E+02  0.13781859411E+04  0.13906015931E+04  0.17430000000E+03 0.  1.
</event>
<event>
 4 661  0.7533903E-01  0.9118800E+02  0.7818608E-02  0.1300000E+00
       21   -1    0    0  501  502  0.00000000000E+00  0.00000000000E+00  0.14030740937E+04  0.14030740937E+04  0.00000000000E+00 0.  1.
       21   -1    0    0  502  503  0.00000000000E+00  0.00000000000E+00 -0.25148152982E+02  0.25148152982E+02  0.00000000000E+00 0.  1.
        6    1    1    2  501    0  0.58362618325E+02 -0.12161744569E+02  0.82865127090E+03  0.84888015762E+03  0.17430000000E+03 0.  1.
       -6    1    1    2    0  503 -0.58362618325E+02  0.12161744569E+02  0.54927466985E+03  0.57934208909E+03  0.17430000000E+03 0.  1.
</event>
<event>
 4 661  0.7533903E-01  0.9118800E+02  0.7818608E-02  0.1300000E+00
       21   -1    0    0  501  502  0.00000000000E+00  0.00000000000E+00  0.22429890811E+03  0.22429890811E+03  0.00000000000E+00 0.  1.
       21   -1    0    0  502  503  0.00000000000E+00  0.00000000000E+00 -0.17423973747E+03  0.17423973747E+03  0.00000000000E+00 0.  1.
        6    1    1    2  501    0  0.98433392584E+01  0.12399976596E+02  0.11769082711E+03  0.21090820641E+03  0.17430000000E+03 0.  1.
       -6    1    1    2    0  503 -0.98433392584E+01 -0.12399976596E+02 -0.67631656468E+02  0.18763043917E+03  0.17430000000E+03 0.  1.
</event>
<event>
 4 661  0.7533903E-01  0.9118800E+02  0.7818608E-02  0.1300000E+00
       21   -1    0    0  501  502  0.00000000000E+00  0.00000000000E+00  0.43947783923E+02  0.43947783923E+02  0.00000000000E+00 0. -1.
       21   -1    0    0  502  503  0.00000000000E+00  0.00000000000E+00 -0.79305932629E+03  0.79305932629E+03  0.00000000000E+00 0. -1.
        6    1    1    2  501    0  0.33986533009E+02 -0.52219068306E+02 -0.32006838136E+03  0.36973798056E+03  0.17430000000E+03 0. -1.
       -6    1    1    2    0  503 -0.33986533009E+02  0.52219068306E+02 -0.42904316101E+03  0.46726912966E+03  0.17430000000E+03 0. -1.
</event>
<event>
 4 661  0.7533903E-01  0.9118800E+02  0.7818608E-02  0.1300000E+00
       21   -1    0    0  501  502  0.00000000000E+00  0.00000000000E+00  0.83293749445E+03  0.83293749445E+03  0.00000000000E+00 0. -1.
       21   -1    0    0  502  503  0.00000000000E+00  0.00000000000E+00 -0.39479650196E+03  0.39479650196E+03  0.00000000000E+00 0.  1.
        6    1    1    2  501    0 -0.18296924433E+03  0.54129153822E+02  0.76706433598E+03  0.80942936393E+03  0.17430000000E+03 0. -1.
       -6    1    1    2    0  503  0.18296924433E+03 -0.54129153822E+02 -0.32892334348E+03  0.41830463248E+03  0.17430000000E+03 0.  1.
</event>
<event>
 4 661  0.7533903E-01  0.9118800E+02  0.7818608E-02  0.1300000E+00
       21   -1    0    0  501  502  0.00000000000E+00  0.00000000000E+00  0.79522301204E+03  0.79522301204E+03  0.00000000000E+00 0. -1.
       21   -1    0    0  502  503  0.00000000000E+00  0.00000000000E+00 -0.68411384856E+02  0.68411384856E+02  0.00000000000E+00 0.  1.
        6    1    1    2  501    0 -0.24847959274E+02 -0.12289903184E+03  0.53207517175E+03  0.57376482246E+03  0.17430000000E+03 0. -1.
       -6    1    1    2    0  503  0.24847959274E+02  0.12289903184E+03  0.19473645544E+03  0.28986957444E+03  0.17430000000E+03 0.  1.
</event>
<event>
 4 661  0.7533903E-01  0.9118800E+02  0.7818608E-02  0.1300000E+00
       21   -1    0    0  501  502  0.00000000000E+00  0.00000000000E+00  0.69533530595E+02  0.69533530595E+02  0.00000000000E+00 0.  1.
       21   -1    0    0  502  503  0.00000000000E+00  0.00000000000E+00 -0.77147518245E+03  0.77147518245E+03  0.00000000000E+00 0.  1.
        6    1    1    2  501    0  0.49543982485E+02  0.11663370920E+03 -0.19686267820E+03  0.29187914004E+03  0.17430000000E+03 0.  1.
       -6    1    1    2    0  503 -0.49543982485E+02 -0.11663370920E+03 -0.50507897366E+03  0.54912957301E+03  0.17430000000E+03 0.  1.
</event>
<event>
 4 661  0.7533903E-01  0.9118800E+02  0.7818608E-02  0.1300000E+00
       21   -1    0    0  502  503  0.00000000000E+00  0.00000000000E+00  0.49769300183E+03  0.49769300183E+03  0.00000000000E+00 0. -1.
       21   -1    0    0  501  502  0.00000000000E+00  0.00000000000E+00 -0.96010946889E+02  0.96010946889E+02  0.00000000000E+00 0.  1.
        6    1    1    2  501    0 -0.22247492148E+02 -0.92097997432E+02  0.32549963307E+03  0.38119219977E+03  0.17430000000E+03 0. -1.
       -6    1    1    2    0  503  0.22247492148E+02  0.92097997432E+02  0.76182421867E+02  0.21251174894E+03  0.17430000000E+03 0.  1.
</event>
<event>
 4 661  0.7533903E-01  0.9118800E+02  0.7818608E-02  0.1300000E+00
       21   -1    0    0  501  502  0.00000000000E+00  0.00000000000E+00  0.24487544629E+03  0.24487544629E+03  0.00000000000E+00 0. -1.
       21   -1    0    0  502  503  0.00000000000E+00  0.00000000000E+00 -0.16934244477E+03  0.16934244477E+03  0.00000000000E+00 0. -1.
        6    1    1    2  501    0 -0.58858290457E+02  0.70456761686E+02 -0.14676956528E+02  0.19754583437E+03  0.17430000000E+03 0. -1.
       -6    1    1    2    0  503  0.58858290457E+02 -0.70456761686E+02  0.90209958047E+02  0.21667205670E+03  0.17430000000E+03 0. -1.
</event>
<event>
 4 661  0.7533903E-01  0.9118800E+02  0.7818608E-02  0.1300000E+00
       21   -1    0    0  501  502  0.00000000000E+00  0.00000000000E+00  0.10380736698E+04  0.10380736698E+04  0.00000000000E+00 0.  1.
       21   -1    0    0  502  503  0.00000000000E+00  0.00000000000E+00 -0.50355377347E+02  0.50355377347E+02  0.00000000000E+00 0.  1.
        6    1    1    2  501    0  0.26866213280E+02  0.44149880123E+02  0.82386541273E+03  0.84368579081E+03  0.17430000000E+03 0.  1.
       -6    1    1    2    0  503 -0.26866213280E+02 -0.44149880123E+02  0.16385287975E+03  0.24474325636E+03  0.17430000000E+03 0.  1.
</event>
<event>
 4 661  0.7533903E-01  0.9118800E+02  0.7818608E-02  0.1300000E+00
       21   -1    0    0  502  503  0.00000000000E+00  0.00000000000E+00  0.46871122814E+03  0.46871122814E+03  0.00000000000E+00 0. -1.
       21   -1    0    0  501  502  0.00000000000E+00  0.00000000000E+00 -0.16123381248E+03  0.16123381248E+03  0.00000000000E+00 0.  1.
        6    1    1    2  501    0  0.13711201123E+03  0.86356126282E+02 -0.39204209143E+01  0.23801878890E+03  0.17430000000E+03 0.  1.
       -6    1    1    2    0  503 -0.13711201123E+03 -0.86356126282E+02  0.31139783657E+03  0.39192625173E+03  0.17430000000E+03 0.  1.
</event>
<event>
 4 661  0.7533903E-01  0.9118800E+02  0.7818608E-02  0.1300000E+00
        2   -1    0    0  501    0  0.00000000000E+00  0.00000000000E+00  0.23430216939E+03  0.23430216939E+03  0.00000000000E+00 0. -1.
       -2   -1    0    0    0  502  0.00000000000E+00  0.00000000000E+00 -0.15541387090E+03  0.15541387090E+03  0.00000000000E+00 0.  1.
        6    1    1    2  501    0 -0.77087661801E+02 -0.48256151349E+01  0.47835095114E+02  0.19655655799E+03  0.17430000000E+03 0. -1.
       -6    1    1    2    0  502  0.77087661801E+02  0.48256151349E+01  0.31053203369E+02  0.19315948230E+03  0.17430000000E+03 0.  1.
</event>
<event>
 4 661  0.7533903E-01  0.9118800E+02  0.7818608E-02  0.1300000E+00
       21   -1    0    0  501  502  0.00000000000E+00  0.00000000000E+00  0.65063923572E+03  0.65063923572E+03  0.00000000000E+00 0. -1.
       21   -1    0    0  502  503  0.00000000000E+00  0.00000000000E+00 -0.65691491230E+02  0.65691491230E+02  0.00000000000E+00 0.  1.
        6    1    1    2  501    0  0.74838617143E+02  0.72634732585E+02  0.35922012081E+03  0.41266961142E+03  0.17430000000E+03 0. -1.
       -6    1    1    2    0  503 -0.74838617143E+02 -0.72634732585E+02  0.22572762368E+03  0.30366111553E+03  0.17430000000E+03 0.  1.
</event>
<event>
 4 661  0.7533903E-01  0.9118800E+02  0.7818608E-02  0.1300000E+00
        3   -1    0    0  501    0  0.00000000000E+00  0.00000000000E+00  0.16924222244E+03  0.16924222244E+03  0.00000000000E+00 0. -1.
       -3   -1    0    0    0  502  0.00000000000E+00  0.00000000000E+00 -0.69314803972E+03  0.69314803972E+03  0.00000000000E+00 0.  1.
        6    1    1    2  501    0  0.28927180500E+03 -0.57019160493E+02 -0.26163719318E+03  0.43100333258E+03  0.17430000000E+03 0. -1.
       -6    1    1    2    0  502 -0.28927180500E+03  0.57019160493E+02 -0.26226862409E+03  0.43138692958E+03  0.17430000000E+03 0. -1.
</event>
<event>
 4 661  0.7533903E-01  0.9118800E+02  0.7818608E-02  0.1300000E+00
       21   -1    0    0  501  502  0.00000000000E+00  0.00000000000E+00  0.13743226965E+03  0.13743226965E+03  0.00000000000E+00 0. -1.
       21   -1    0    0  502  503  0.00000000000E+00  0.00000000000E+00 -0.45788397498E+03  0.45788397498E+03  0.00000000000E+00 0. -1.
        6    1    1    2  501    0 -0.53860904488E+02 -0.28331373765E+02  0.41296162528E+02  0.18918120100E+03  0.17430000000E+03 0. -1.
       -6    1    1    2    0  503  0.53860904488E+02  0.28331373765E+02 -0.36174786786E+03  0.40613504364E+03  0.17430000000E+03 0. -1.
</event>
<event>
 4 661  0.7533903E-01  0.9118800E+02  0.7818608E-02  0.1300000E+00
       21   -1    0    0  502  503  0.00000000000E+00  0.00000000000E+00  0.22857747992E+03  0.22857747992E+03  0.00000000000E+00 0. -1.
       21   -1    0    0  501  502  0.00000000000E+00  0.00000000000E+00 -0.14832928834E+03  0.14832928834E+03  0.00000000000E+00 0.  1.
        6    1    1    2  501    0  0.19776704800E+02  0.49391014971E+02  0.67079470440E+02  0.19419252243E+03  0.17430000000E+03 0. -1.
       -6    1    1    2    0  503 -0.19776704800E+02 -0.49391014971E+02  0.13168721143E+02  0.18271424583E+03  0.17430000000E+03 0.  1.
</event>
<event>
 4 661  0.7533903E-01  0.9118800E+02  0.7818608E-02  0.1300000E+00
        2   -1    0    0  501    0  0.00000000000E+00  0.00000000000E+00  0.14024549643E+04  0.14024549643E+04  0.00000000000E+00 0.  1.
       -2   -1    0    0    0  502  0.00000000000E+00  0.00000000000E+00 -0.26717147074E+02  0.26717147074E+02  0.00000000000E+00 0. -1.
        6    1    1    2  501    0  0.50304141920E+02 -0.16801921685E+02  0.44646248248E+03  0.48220540180E+03  0.17430000000E+03 0. -1.
       -6    1    1    2    0  502 -0.50304141920E+02  0.16801921685E+02  0.92927533472E+03  0.94696670954E+03  0.17430000000E+03 0.  1.
</event>
<event>
 4 661  0.7533903E-01  0.9118800E+02  0.7818608E-02  0.1300000E+00
       -2   -1    0    0    0  502  0.00000000000E+00  0.00000000000E+00  0.57147675171E+02  0.57147675171E+02  0.00000000000E+00 0.  1.
        2   -1    0    0  501    0  0.00000000000E+00  0.00000000000E+00 -0.97998599462E+03  0.97998599462E+03  0.00000000000E+00 0. -1.
        6    1    1    2  501    0 -0.82144562248E+02  0.81469183630E+02 -0.21900434367E+03  0.30286688418E+03  0.17430000000E+03 0.  1.
       -6    1    1    2    0  502  0.82144562248E+02 -0.81469183630E+02 -0.70383397578E+03  0.73426678561E+03  0.17430000000E+03 0.  1.
</event>
<event>
 4 661  0.7533903E-01  0.9118800E+02  0.7818608E-02  0.1300000E+00
       21   -1    0    0  501  502  0.00000000000E+00  0.00000000000E+00  0.15612067059E+03  0.15612067059E+03  0.00000000000E+00 0.  1.
       21   -1    0    0  502  503  0.00000000000E+00  0.00000000000E+00 -0.50159759997E+03  0.50159759997E+03  0.00000000000E+00 0. -1.
        6    1    1    2  501    0  0.16782440834E+03  0.10419824668E+02 -0.79807402875E+01  0.24231753341E+03  0.17430000000E+03 0.  1.
       -6    1    1    2    0  503 -0.16782440834E+03 -0.10419824668E+02 -0.33749618909E+03  0.41540073716E+03  0.17430000000E+03 0. -1.
</event>
<event>
 4 661  0.7533903E-01  0.9118800E+02  0.7818608E-02  0.1300000E+00
       -2   -1    0    0    0  502  0.00000000000E+00  0.00000000000E+00  0.18185243307E+02  0.18185243307E+02  0.00000000000E+00 0.  1.
        2   -1    0    0  501    0  0.00000000000E+00  0.00000000000E+00 -0.24250020718E+04  0.24250020718E+04  0.00000000000E+00 0. -1.
        6    1    1    2  501    0 -0.11381310715E+03 -0.24436978360E+02 -0.11279704712E+04  0.11472787207E+04  0.17430000000E+03 0.  1.
       -6    1    1    2    0  502  0.11381310715E+03  0.24436978360E+02 -0.12788463573E+04  0.12959085943E+04  0.17430000000E+03 0. -1.
</event>
<event>
 4 661  0.7533903E-01  0.9118800E+02  0.7818608E-02  0.1300000E+00
       21   -1    0    0  501  502  0.00000000000E+00  0.00000000000E+00  0.18572615317E+03  0.18572615317E+03  0.00000000000E+00 0.  1.
       21   -1    0    0  502  503  0.00000000000E+00  0.00000000000E+00 -0.21982099674E+03  0.21982099674E+03  0.00000000000E+00 0. -1.
        6    1    1    2  501    0  0.45507058076E+02  0.87077408705E+02 -0.45301500768E+02  0.20514892984E+03  0.17430000000E+03 0. -1.
       -6    1    1    2    0  503 -0.45507058076E+02 -0.87077408705E+02  0.11206657199E+02  0.20039822007E+03  0.17430000000E+03 0.  1.
</event>
<event>
 4 661  0.7533903E-01  0.9118800E+02  0.7818608E-02  0.1300000E+00
       21   -1    0    0  501  502  0.00000000000E+00  0.00000000000E+00  0.48243218250E+02  0.48243218250E+02  0.00000000000E+00 0. -1.
       21   -1    0    0  502  503  0.00000000000E+00  0.00000000000E+00 -0.10347680154E+04  0.10347680154E+04  0.00000000000E+00 0. -1.
        6    1    1    2  501    0  0.43280337242E+02  0.39124756279E+02 -0.18539562317E+03  0.26106696695E+03  0.17430000000E+03 0. -1.
       -6    1    1    2    0  503 -0.43280337242E+02 -0.39124756279E+02 -0.80112917397E+03  0.82194426668E+03  0.17430000000E+03 0. -1.
</event>
<event>
 4 661  0.7533903E-01  0.9118800E+02  0.7818608E-02  0.1300000E+00
       21   -1    0    0  501  502  0.00000000000E+00  0.00000000000E+00  0.68569493492E+03  0.68569493492E+03  0.00000000000E+00 0. -1.
       21   -1    0    0  502  503  0.00000000000E+00  0.00000000000E+00 -0.49370375236E+03  0.49370375236E+03  0.00000000000E+00 0.  1.
        6    1    1    2  501    0  0.24337878344E+03  0.29014992569E+03  0.50735136560E+03  0.65666285854E+03  0.17430000000E+03 0. -1.
       -6    1    1    2    0  503 -0.24337878344E+03 -0.29014992569E+03 -0.31536018305E+03  0.52273582875E+03  0.17430000000E+03 0.  1.
</event>
<event>
 4 661  0.7533903E-01  0.9118800E+02  0.7818608E-02  0.1300000E+00
       21   -1    0    0  502  503  0.00000000000E+00  0.00000000000E+00  0.16859130970E+03  0.16859130970E+03  0.00000000000E+00 0.  1.
       21   -1    0    0  501  502  0.00000000000E+00  0.00000000000E+00 -0.45999750380E+03  0.45999750380E+03  0.00000000000E+00 0.  1.
        6    1    1    2  501    0 -0.10452654484E+03  0.16832783296E+03 -0.24608558141E+03  0.36083051604E+03  0.17430000000E+03 0.  1.
       -6    1    1    2    0  503  0.10452654484E+03 -0.16832783296E+03 -0.45320612682E+02  0.26775829746E+03  0.17430000000E+03 0.  1.
</event>
<event>
 4 661  0.7533903E-01  0.9118800E+02  0.7818608E-02  0.1300000E+00
       21   -1    0    0  501  502  0.00000000000E+00  0.00000000000E+00  0.23706391648E+03  0.23706391648E+03  0.00000000000E+00 0. -1.
       21   -1    0    0  502  503  0.00000000000E+00  0.00000000000E+00 -0.24918734090E+03  0.24918734090E+03  0.00000000000E+00 0. -1.
        6    1    1    2  501    0 -0.37746554175E+02  0.10776612893E+03  0.11909512288E+03  0.24000516493E+03  0.17430000000E+03 0. -1.
       -6    1    1    2    0  503  0.37746554175E+02 -0.10776612893E+03 -0.13121854730E+03  0.24624609246E+03  0.17430000000E+03 0. -1.
</event>
<event>
 4 661  0.7533903E-01  0.9118800E+02  0.7818608E-02  0.1300000E+00
       21   -1    0    0  502  503  0.00000000000E+00  0.00000000000E+00  0.55328953421E+03  0.55328953421E+03  0.00000000000E+00 0.  1.
       21   -1    0    0  501  502  0.00000000000E+00  0.00000000000E+00 -0.11985253940E+03  0.11985253940E+03  0.00000000000E+00 0.  1.
        6    1    1    2  501    0  0.15604557829E+03 -0.25563477455E+02  0.80082180003E+02  0.24859074688E+03  0.17430000000E+03 0.  1.
       -6    1    1    2    0  503 -0.15604557829E+03  0.25563477455E+02  0.35335481481E+03  0.42455132673E+03  0.17430000000E+03 0.  1.
</event>
<event>
 4 661  0.7533903E-01  0.9118800E+02  0.7818608E-02  0.1300000E+00
        2   -1    0    0  501    0  0.00000000000E+00  0.00000000000E+00  0.58156044187E+03  0.58156044187E+03  0.00000000000E+00 0.  1.
       -2   -1    0    0    0  502  0.00000000000E+00  0.00000000000E+00 -0.13125412566E+03  0.13125412566E+03  0.00000000000E+00 0. -1.
        6    1    1    2  501    0 -0.70528627161E+02 -0.13736401943E+03  0.33342448657E+02  0.23523471250E+03  0.17430000000E+03 0. -1.
       -6    1    1    2    0  502  0.70528627161E+02  0.13736401943E+03  0.41696386755E+03  0.47757985502E+03  0.17430000000E+03 0.  1.
</event>
<event>
 4 661  0.7533903E-01  0.9118800E+02  0.7818608E-02  0.1300000E+00
       21   -1    0    0  502  503  0.00000000000E+00  0.00000000000E+00  0.39435393757E+03  0.39435393757E+03  0.00000000000E+00 0. -1.
       21   -1    0    0  501  502  0.00000000000E+00  0.00000000000E+00 -0.15253483740E+03  0.15253483740E+03  0.00000000000E+00 0. -1.
        6    1    1    2  501    0 -0.28478476020E+01  0.39608463799E+02 -0.66300703311E+02  0.19066518796E+03  0.17430000000E+03 0. -1.
       -6    1    1    2    0  503  0.28478476020E+01 -0.39608463799E+02  0.30811980349E+03  0.35622358701E+03  0.17430000000E+03 0. -1.
</event>
<event>
 4 661  0.7533903E-01  0.9118800E+02  0.7818608E-02  0.1300000E+00
       21   -1    0    0  501  502  0.00000000000E+00  0.00000000000E+00  0.32345285864E+03  0.32345285864E+03  0.00000000000E+00 0. -1.
       21   -1    0    0  502  503  0.00000000000E+00  0.00000000000E+00 -0.24425308796E+03  0.24425308796E+03  0.00000000000E+00 0. -1.
        6    1    1    2  501    0 -0.73948307456E+02 -0.19180769441E+03  0.12017078916E+03  0.29509329436E+03  0.17430000000E+03 0. -1.
       -6    1    1    2    0  503  0.73948307456E+02  0.19180769441E+03 -0.40971018477E+02  0.27261265225E+03  0.17430000000E+03 0. -1.
</event>
<event>
 4 661  0.7533903E-01  0.9118800E+02  0.7818608E-02  0.1300000E+00
       21   -1    0    0  501  502  0.00000000000E+00  0.00000000000E+00  0.10800666902E+03  0.10800666902E+03  0.00000000000E+00 0. -1.
       21   -1    0    0  502  503  0.00000000000E+00  0.00000000000E+00 -0.37696950795E+03  0.37696950795E+03  0.00000000000E+00 0. -1.
        6    1    1    2  501    0  0.34771209626E+02 -0.23153569394E+02 -0.23103619198E+02  0.18071909698E+03  0.17430000000E+03 0. -1.
       -6    1    1    2    0  503 -0.34771209626E+02  0.23153569394E+02 -0.24585921973E+03  0.30425707999E+03  0.17430000000E+03 0. -1.
</event>
<event>
 4 661  0.7533903E-01  0.9118800E+02  0.7818608E-02  0.1300000E+00
       21   -1    0    0  501  502  0.00000000000E+00  0.00000000000E+00  0.72392542663E+02  0.72392542663E+02  0.00000000000E+00 0.  1.
       21   -1    0    0  502  503  0.00000000000E+00  0.00000000000E+00 -0.12012008489E+04  0.12012008489E+04  0.00000000000E+00 0. -1.
        6    1    1    2  501    0  0.56082471974E+02  0.16311698666E+03 -0.21071907700E+03  0.32331936906E+03  0.17430000000E+03 0.  1.
       -6    1    1    2    0  503 -0.56082471974E+02 -0.16311698666E+03 -0.91808922922E+03  0.95027402248E+03  0.17430000000E+03 0. -1.
</event>
<event>
 4 661  0.7533903E-01  0.9118800E+02  0.7818608E-02  0.1300000E+00
       21   -1    0    0  502  503  0.00000000000E+00  0.00000000000E+00  0.68198981760E+02  0.68198981760E+02  0.00000000000E+00 0.  1.
       21   -1    0    0  501  502  0.00000000000E+00  0.00000000000E+00 -0.82748836160E+03  0.82748836160E+03  0.00000000000E+00 0.  1.
        6    1    1    2  501    0 -0.76801909715E+02  0.10572007552E+03 -0.55827243381E+03  0.59926944529E+03  0.17430000000E+03 0.  1.
       -6    1    1    2    0  503  0.76801909715E+02 -0.10572007552E+03 -0.20101694602E+03  0.29641789807E+03  0.17430000000E+03 0.  1.
</event>
<event>
 4 661  0.7533903E-01  0.9118800E+02  0.7818608E-02  0.1300000E+00
       21   -1    0    0  502  503  0.00000000000E+00  0.00000000000E+00  0.16208333716E+03  0.16208333716E+03  0.00000000000E+00 0. -1.
       21   -1    0    0  501  502  0.00000000000E+00  0.00000000000E+00 -0.43873677003E+03  0.43873677003E+03  0.00000000000E+00 0. -1.
        6    1    1    2  501    0  0.45111244818E+02  0.40171027395E+02 -0.35526135349E+03  0.40029970664E+03  0.17430000000E+03 0. -1.
       -6    1    1    2    0  503 -0.45111244818E+02 -0.40171027395E+02  0.78607920629E+02  0.20052040055E+03  0.17430000000E+03 0. -1.
</event>
<event>
 4 661  0.7533903E-01  0.9118800E+02  0.7818608E-02  0.1300000E+00
       21   -1    0    0  501  502  0.00000000000E+00  0.00000000000E+00  0.16344513342E+03  0.16344513342E+03  0.00000000000E+00 0.  1.
       21   -1    0    0  502  503  0.00000000000E+00  0.00000000000E+00 -0.44424565832E+03  0.44424565832E+03  0.00000000000E+00 0. -1.
        6    1    1    2  501    0  0.51942883428E+02 -0.18932752791E+03 -0.20886262369E+03  0.33548034449E+03  0.17430000000E+03 0. -1.
       -6    1    1    2    0  503 -0.51942883428E+02  0.18932752791E+03 -0.71937901209E+02  0.27221044725E+03  0.17430000000E+03 0.  1.
</event>
<event>
 4 661  0.7533903E-01  0.9118800E+02  0.7818608E-02  0.1300000E+00
        1   -1    0    0  501    0  0.00000000000E+00  0.00000000000E+00  0.12122833298E+03  0.12122833298E+03  0.00000000000E+00 0.  1.
       -1   -1    0    0    0  502  0.00000000000E+00  0.00000000000E+00 -0.62671792677E+03  0.62671792677E+03  0.00000000000E+00 0. -1.
        6    1    1    2  501    0  0.64679034840E+01  0.19741415845E+03 -0.36281201206E+03  0.44836060245E+03  0.17430000000E+03 0. -1.
       -6    1    1    2    0  502 -0.64679034840E+01 -0.19741415845E+03 -0.14267758172E+03  0.29958565730E+03  0.17430000000E+03 0.  1.
</event>
<event>
 4 661  0.7533903E-01  0.9118800E+02  0.7818608E-02  0.1300000E+00
       21   -1    0    0  502  503  0.00000000000E+00  0.00000000000E+00  0.19421951483E+03  0.19421951483E+03  0.00000000000E+00 0. -1.
       21   -1    0    0  501  502  0.00000000000E+00  0.00000000000E+00 -0.48341253776E+03  0.48341253776E+03  0.00000000000E+00 0. -1.
        6    1    1    2  501    0 -0.91524919142E+02  0.23453254012E+03 -0.13221723255E+03  0.33353292158E+03  0.17430000000E+03 0. -1.
       -6    1    1    2    0  503  0.91524919142E+02 -0.23453254012E+03 -0.15697579038E+03  0.34409913101E+03  0.17430000000E+03 0. -1.
</event>
<event>
 4 661  0.7533903E-01  0.9118800E+02  0.7818608E-02  0.1300000E+00
       21   -1    0    0  501  502  0.00000000000E+00  0.00000000000E+00  0.26474637613E+03  0.26474637613E+03  0.00000000000E+00 0. -1.
       21   -1    0    0  502  503  0.00000000000E+00  0.00000000000E+00 -0.12723071793E+03  0.12723071793E+03  0.00000000000E+00 0. -1.
        6    1    1    2  501    0 -0.11506054436E+02  0.56236053264E+02  0.71870918538E+02  0.19708069897E+03  0.17430000000E+03 0. -1.
       -6    1    1    2    0  503  0.11506054436E+02 -0.56236053264E+02  0.65644739661E+02  0.19489639509E+03  0.17430000000E+03 0. -1.
</event>
<event>
 4 661  0.7533903E-01  0.9118800E+02  0.7818608E-02  0.1300000E+00
       -2   -1    0    0    0  502  0.00000000000E+00  0.00000000000E+00  0.72422138347E+02  0.72422138347E+02  0.00000000000E+00 0.  1.
        2   -1    0    0  501    0  0.00000000000E+00  0.00000000000E+00 -0.12362372985E+04  0.12362372985E+04  0.00000000000E+00 0. -1.
        6    1    1    2  501    0 -0.19393544796E+03  0.13743240332E+03 -0.46929593103E+03  0.55418208591E+03  0.17430000000E+03 0.  1.
       -6    1    1    2    0  502  0.19393544796E+03 -0.13743240332E+03 -0.69451922909E+03  0.75447735091E+03  0.17430000000E+03 0. -1.
</event>
<event>
 4 661  0.7533903E-01  0.9118800E+02  0.7818608E-02  0.1300000E+00
       -2   -1    0    0    0  502  0.00000000000E+00  0.00000000000E+00  0.15520559692E+02  0.15520559692E+02  0.00000000000E+00 0.  1.
        2   -1    0    0  501    0  0.00000000000E+00  0.00000000000E+00 -0.25858784206E+04  0.25858784206E+04  0.00000000000E+00 0. -1.
        6    1    1    2  501    0  0.73810193051E+02  0.45208433279E+02 -0.15939735262E+04  0.16058094032E+04  0.17430000000E+03 0.  1.
       -6    1    1    2    0  502 -0.73810193051E+02 -0.45208433279E+02 -0.97638433470E+03  0.99558957713E+03  0.17430000000E+03 0.  1.
</event>
<event>
 4 661  0.7533903E-01  0.9118800E+02  0.7818608E-02  0.1300000E+00
       21   -1    0    0  502  503  0.00000000000E+00  0.00000000000E+00  0.20937304936E+03  0.20937304936E+03  0.00000000000E+00 0.  1.
       21   -1    0    0  501  502  0.00000000000E+00  0.00000000000E+00 -0.16441116468E+04  0.16441116468E+04  0.00000000000E+00 0. -1.
        6    1    1    2  501    0 -0.24949381862E+03  0.48452871572E+02 -0.15059695996E+04  0.15371791604E+04  0.17430000000E+03 0. -1.
       -6    1    1    2    0  503  0.24949381862E+03 -0.48452871572E+02  0.71231002139E+02  0.31630553577E+03  0.17430000000E+03 0.  1.
</event>
<event>
 4 661  0.7533903E-01  0.9118800E+02  0.7818608E-02  0.1300000E+00
       21   -1    0    0  501  502  0.00000000000E+00  0.00000000000E+00  0.31098999674E+04  0.31098999674E+04  0.00000000000E+00 0.  1.
       21   -1    0    0  502  503  0.00000000000E+00  0.00000000000E+00 -0.16695575052E+03  0.16695575052E+03  0.00000000000E+00 0.  1.
        6    1    1    2  501    0 -0.71507922859E+02  0.63128521840E+02  0.30463788760E+04  0.30528516733E+04  0.17430000000E+03 0.  1.
       -6    1    1    2    0  503  0.71507922859E+02 -0.63128521840E+02 -0.10343465909E+03  0.22400404461E+03  0.17430000000E+03 0.  1.
</event>
<event>
 4 661  0.7533903E-01  0.9118800E+02  0.7818608E-02  0.1300000E+00
       -2   -1    0    0    0  502  0.00000000000E+00  0.00000000000E+00  0.27934524070E+02  0.27934524070E+02  0.00000000000E+00 0. -1.
        2   -1    0    0  501    0  0.00000000000E+00  0.00000000000E+00 -0.26746865847E+04  0.26746865847E+04  0.00000000000E+00 0.  1.
        6    1    1    2  501    0  0.16247717761E+03 -0.13295955593E+03 -0.14028643975E+04  0.14291557244E+04  0.17430000000E+03 0. -1.
       -6    1    1    2    0  502 -0.16247717761E+03  0.13295955593E+03 -0.12438876632E+04  0.12734653844E+04  0.17430000000E+03 0.  1.
</event>
<event>
 4 661  0.7533903E-01  0.9118800E+02  0.7818608E-02  0.1300000E+00
       21   -1    0    0  502  503  0.00000000000E+00  0.00000000000E+00  0.33813595889E+03  0.33813595889E+03  0.00000000000E+00 0. -1.
       21   -1    0    0  501  502  0.00000000000E+00  0.00000000000E+00 -0.28317159406E+03  0.28317159406E+03  0.00000000000E+00 0. -1.
        6    1    1    2  501    0 -0.64017417484E+02  0.12046226501E+03 -0.18961103387E+03  0.29144848807E+03  0.17430000000E+03 0. -1.
       -6    1    1    2    0  503  0.64017417484E+02 -0.12046226501E+03  0.24457539870E+03  0.32985906488E+03  0.17430000000E+03 0. -1.
</event>
<event>
 4 661  0.7533903E-01  0.9118800E+02  0.7818608E-02  0.1300000E+00
       21   -1    0    0  501  502  0.00000000000E+00  0.00000000000E+00  0.32844517093E+03  0.32844517093E+03  0.00000000000E+00 0. -1.
       21   -1    0    0  502  503  0.00000000000E+00  0.00000000000E+00 -0.25807715043E+03  0.25807715043E+03  0.00000000000E+00 0. -1.
        6    1    1    2  501    0  0.56672685521E+02 -0.21914898769E+03  0.91678002678E+02  0.30003902790E+03  0.17430000000E+03 0. -1.
       -6    1    1    2    0  503 -0.56672685521E+02  0.21914898769E+03 -0.21309982174E+02  0.28648329346E+03  0.17430000000E+03 0. -1.
</event>
<event>
 4 661  0.7533903E-01  0.9118800E+02  0.7818608E-02  0.1300000E+00
       21   -1    0    0  501  502  0.00000000000E+00  0.00000000000E+00  0.41429290718E+03  0.41429290718E+03  0.00000000000E+00 0. -1.
       21   -1    0    0  502  503  0.00000000000E+00  0.00000000000E+00 -0.21090649679E+03  0.21090649679E+03  0.00000000000E+00 0. -1.
        6    1    1    2  501    0 -0.81178724055E+02 -0.82360210455E+02  0.32256970860E+03  0.38445402379E+03  0.17430000000E+03 0. -1.
       -6    1    1    2    0  503  0.81178724055E+02  0.82360210455E+02 -0.11918329820E+03  0.24074538018E+03  0.17430000000E+03 0. -1.
</event>
<event>
 4 661  0.7533903E-01  0.9118800E+02  0.7818608E-02  0.1300000E+00
       21   -1    0    0  502  503  0.00000000000E+00  0.00000000000E+00  0.16488075104E+03  0.16488075104E+03  0.00000000000E+00 0. -1.
       21   -1    0    0  501  502  0.00000000000E+00  0.00000000000E+00 -0.35195430672E+03  0.35195430672E+03  0.00000000000E+00 0. -1.
        6    1    1    2  501    0  0.33031666966E+02 -0.40455406968E+02 -0.26288772983E+03  0.31971577921E+03  0.17430000000E+03 0. -1.
       -6    1    1    2    0  503 -0.33031666966E+02  0.40455406968E+02  0.75814174152E+02  0.19711927855E+03  0.17430000000E+03 0. -1.
</event>
<event>
 4 661  0.7533903E-01  0.9118800E+02  0.7818608E-02  0.1300000E+00
       21   -1    0    0  502  503  0.00000000000E+00  0.00000000000E+00  0.65125928868E+03  0.65125928868E+03  0.00000000000E+00 0.  1.
       21   -1    0    0  501  502  0.00000000000E+00  0.00000000000E+00 -0.98835379805E+02  0.98835379805E+02  0.00000000000E+00 0.  1.
        6    1    1    2  501    0 -0.10837836809E+03 -0.10846607237E+03  0.12490635871E+03  0.26361496159E+03  0.17430000000E+03 0.  1.
       -6    1    1    2    0  503  0.10837836809E+03  0.10846607237E+03  0.42751755016E+03  0.48647970690E+03  0.17430000000E+03 0.  1.
</event>
<event>
 4 661  0.7533903E-01  0.9118800E+02  0.7818608E-02  0.1300000E+00
       21   -1    0    0  501  502  0.00000000000E+00  0.00000000000E+00  0.10630581496E+03  0.10630581496E+03  0.00000000000E+00 0.  1.
       21   -1    0    0  502  503  0.00000000000E+00  0.00000000000E+00 -0.36823384590E+03  0.36823384590E+03  0.00000000000E+00 0.  1.
        6    1    1    2  501    0 -0.85689637253E+02  0.36988689827E+02 -0.12214890863E+03  0.23240422326E+03  0.17430000000E+03 0.  1.
       -6    1    1    2    0  503  0.85689637253E+02 -0.36988689827E+02 -0.13977912232E+03  0.24213543760E+03  0.17430000000E+03 0.  1.
</event>
<event>
 4 661  0.7533903E-01  0.9118800E+02  0.7818608E-02  0.1300000E+00
       21   -1    0    0  502  503  0.00000000000E+00  0.00000000000E+00  0.11247467637E+03  0.11247467637E+03  0.00000000000E+00 0.  1.
       21   -1    0    0  501  502  0.00000000000E+00  0.00000000000E+00 -0.37868331640E+03  0.37868331640E+03  0.00000000000E+00 0.  1.
        6    1    1    2  501    0 -0.21372140784E+02 -0.10835641106E+03 -0.13754285746E+03  0.24798469279E+03  0.17430000000E+03 0.  1.
       -6    1    1    2    0  503  0.21372140784E+02  0.10835641106E+03 -0.12866578258E+03  0.24317329999E+03  0.17430000000E+03 0.  1.
</event>
<event>
 4 661  0.7533903E-01  0.9118800E+02  0.7818608E-02  0.1300000E+00
       -2   -1    0    0    0  502  0.00000000000E+00  0.00000000000E+00  0.58398324786E+03  0.58398324786E+03  0.00000000000E+00 0.  1.
        2   -1    0    0  501    0  0.00000000000E+00  0.00000000000E+00 -0.22716066859E+03  0.22716066859E+03  0.00000000000E+00 0. -1.
        6    1    1    2  501    0 -0.26660446699E+03  0.16419053253E+03  0.10589451508E+03  0.37367179599E+03  0.17430000000E+03 0.  1.
       -6    1    1    2    0  502  0.26660446699E+03 -0.16419053253E+03  0.25092806419E+03  0.43747212047E+03  0.17430000000E+03 0. -1.
</event>
<event>
 4 661  0.7533903E-01  0.9118800E+02  0.7818608E-02  0.1300000E+00
       21   -1    0    0  501  502  0.00000000000E+00  0.00000000000E+00  0.48873611332E+03  0.48873611332E+03  0.00000000000E+00 0.  1.
       21   -1    0    0  502  503  0.00000000000E+00  0.00000000000E+00 -0.13363765137E+03  0.13363765137E+03  0.00000000000E+00 0.  1.
        6    1    1    2  501    0 -0.74587707586E+02 -0.74719476472E+02  0.36534552638E+03  0.41833499726E+03  0.17430000000E+03 0. -1.
       -6    1    1    2    0  503  0.74587707586E+02  0.74719476472E+02 -0.10247064430E+02  0.20403876744E+03  0.17430000000E+03 0. -1.
</event>
<event>
 4 661  0.7533903E-01  0.9118800E+02  0.7818608E-02  0.1300000E+00
       21   -1    0    0  502  503  0.00000000000E+00  0.00000000000E+00  0.86133013114E+02  0.86133013114E+02  0.00000000000E+00 0. -1.
       21   -1    0    0  501  502  0.00000000000E+00  0.00000000000E+00 -0.13855262916E+04  0.13855262916E+04  0.00000000000E+00 0. -1.
        6    1    1    2  501    0  0.19207966550E+03  0.16438094335E+03 -0.98677547099E+03  0.10334515047E+04  0.17430000000E+03 0. -1.
       -6    1    1    2    0  503 -0.19207966550E+03 -0.16438094335E+03 -0.31261780754E+03  0.43820780005E+03  0.17430000000E+03 0. -1.
</event>
<event>
 4 661  0.7533903E-01  0.9118800E+02  0.7818608E-02  0.1300000E+00
       21   -1    0    0  501  502  0.00000000000E+00  0.00000000000E+00  0.14043858137E+03  0.14043858137E+03  0.00000000000E+00 0.  1.
       21   -1    0    0  502  503  0.00000000000E+00  0.00000000000E+00 -0.30479071289E+03  0.30479071289E+03  0.00000000000E+00 0.  1.
        6    1    1    2  501    0 -0.32098198588E+02  0.45424412478E+02  0.21757409728E+02  0.18424859967E+03  0.17430000000E+03 0.  1.
       -6    1    1    2    0  503  0.32098198588E+02 -0.45424412478E+02 -0.18610954125E+03  0.26098069459E+03  0.17430000000E+03 0.  1.
</event>
<event>
 4 661  0.7533903E-01  0.9118800E+02  0.7818608E-02  0.1300000E+00
       21   -1    0    0  501  502  0.00000000000E+00  0.00000000000E+00  0.11402812396E+03  0.11402812396E+03  0.00000000000E+00 0. -1.
       21   -1    0    0  502  503  0.00000000000E+00  0.00000000000E+00 -0.42206450918E+03  0.42206450918E+03  0.00000000000E+00 0. -1.
        6    1    1    2  501    0 -0.10802804848E+03 -0.28459064131E+02 -0.65346283282E+02  0.21709584134E+03  0.17430000000E+03 0. -1.
       -6    1    1    2    0  503  0.10802804848E+03  0.28459064131E+02 -0.24269010194E+03  0.31899679179E+03  0.17430000000E+03 0. -1.
</event>
<event>
 4 661  0.7533903E-01  0.9118800E+02  0.7818608E-02  0.1300000E+00
       21   -1    0    0  501  502  0.00000000000E+00  0.00000000000E+00  0.89688673164E+02  0.89688673164E+02  0.00000000000E+00 0. -1.
       21   -1    0    0  502  503  0.00000000000E+00  0.00000000000E+00 -0.15686167328E+04  0.15686167328E+04  0.00000000000E+00 0.  1.
        6    1    1    2  501    0 -0.86846290522E+02  0.12939244648E+03 -0.91110294773E+02  0.25093078567E+03  0.17430000000E+03 0. -1.
       -6    1    1    2    0  503  0.86846290522E+02 -0.12939244648E+03 -0.13878177648E+04  0.14073746202E+04  0.17430000000E+03 0.  1.
</event>
<event>
 4 661  0.7533903E-01  0.9118800E+02  0.7818608E-02  0.1300000E+00
       21   -1    0    0  502  503  0.00000000000E+00  0.00000000000E+00  0.11409923714E+03  0.11409923714E+03  0.00000000000E+00 0. -1.
       21   -1    0    0  501  502  0.00000000000E+00  0.00000000000E+00 -0.31581451873E+03  0.31581451873E+03  0.00000000000E+00 0. -1.
        6    1    1    2  501    0 -0.68054886141E+02  0.12910981704E+02 -0.13397954363E+03  0.23049765528E+03  0.17430000000E+03 0. -1.
       -6    1    1    2    0  503  0.68054886141E+02 -0.12910981704E+02 -0.67735737958E+02  0.19941610059E+03  0.17430000000E+03 0. -1.
</event>
<event>
 4 661  0.7533903E-01  0.9118800E+02  0.7818608E-02  0.1300000E+00
       21   -1    0    0  502  503  0.00000000000E+00  0.00000000000E+00  0.10277332889E+04  0.10277332889E+04  0.00000000000E+00 0.  1.
       21   -1    0    0  501  502  0.00000000000E+00  0.00000000000E+00 -0.47915891357E+02  0.47915891357E+02  0.00000000000E+00 0.  1.
        6    1    1    2  501    0 -0.14814216457E+02 -0.95701269953E+02  0.25385876777E+03  0.32280482966E+03  0.17430000000E+03 0.  1.
       -6    1    1    2    0  503  0.14814216457E+02  0.95701269953E+02  0.72595862977E+03  0.75284435059E+03  0.17430000000E+03 0.  1.
</event>
<event>
 4 661  0.7533903E-01  0.9118800E+02  0.7818608E-02  0.1300000E+00
       21   -1    0    0  501  502  0.00000000000E+00  0.00000000000E+00  0.15444235502E+03  0.15444235502E+03  0.00000000000E+00 0. -1.
       21   -1    0    0  502  503  0.00000000000E+00  0.00000000000E+00 -0.48298368856E+03  0.48298368856E+03  0.00000000000E+00 0. -1.
        6    1    1    2  501    0 -0.12804939129E+03 -0.13098294054E+03 -0.43789769273E+02  0.25661490840E+03  0.17430000000E+03 0. -1.
       -6    1    1    2    0  503  0.12804939129E+03  0.13098294054E+03 -0.28475156427E+03  0.38081113518E+03  0.17430000000E+03 0. -1.
</event>
<event>
 4 661  0.7533903E-01  0.9118800E+02  0.7818608E-02  0.1300000E+00
        2   -1    0    0  501    0  0.00000000000E+00  0.00000000000E+00  0.12728397125E+04  0.12728397125E+04  0.00000000000E+00 0. -1.
       -2   -1    0    0    0  502  0.00000000000E+00  0.00000000000E+00 -0.25843402919E+03  0.25843402919E+03  0.00000000000E+00 0.  1.
        6    1    1    2  501    0  0.46164493933E+03 -0.73503551685E+02  0.88488838465E+03  0.10158379622E+04  0.17430000000E+03 0. -1.
       -6    1    1    2    0  502 -0.46164493933E+03  0.73503551685E+02  0.12951729863E+03  0.51543577947E+03  0.17430000000E+03 0.  1.
</event>
<event>
 4 661  0.7533903E-01  0.9118800E+02  0.7818608E-02  0.1300000E+00
       21   -1    0    0  502  503  0.00000000000E+00  0.00000000000E+00  0.39643066594E+03  0.39643066594E+03  0.00000000000E+00 0.  1.
       21   -1    0    0  501  502  0.00000000000E+00  0.00000000000E+00 -0.15213666708E+03  0.15213666708E+03  0.00000000000E+00 0.  1.
        6    1    1    2  501    0 -0.14429575734E+03  0.26338117767E+02  0.19686351962E+02  0.22865477141E+03  0.17430000000E+03 0.  1.
       -6    1    1    2    0  503  0.14429575734E+03 -0.26338117767E+02  0.22460764690E+03  0.31991256161E+03  0.17430000000E+03 0.  1.
</event>
<event>
 4 661  0.7533903E-01  0.9118800E+02  0.7818608E-02  0.1300000E+00
       21   -1    0    0  502  503  0.00000000000E+00  0.00000000000E+00  0.93965079008E+02  0.93965079008E+02  0.00000000000E+00 0. -1.
       21   -1    0    0  501  502  0.00000000000E+00  0.00000000000E+00 -0.58486180407E+03  0.58486180407E+03  0.00000000000E+00 0. -1.
        6    1    1    2  501    0 -0.98918468824E+02  0.17127319432E+02 -0.41977811858E+03  0.46548079164E+03  0.17430000000E+03 0. -1.
       -6    1    1    2    0  503  0.98918468824E+02 -0.17127319432E+02 -0.71118606484E+02  0.21334609144E+03  0.17430000000E+03 0. -1.
</event>
<event>
 4 661  0.7533903E-01  0.9118800E+02  0.7818608E-02  0.1300000E+00
       21   -1    0    0  502  503  0.00000000000E+00  0.00000000000E+00  0.70059481052E+03  0.70059481052E+03  0.00000000000E+00 0.  1.
       21   -1    0    0  501  502  0.00000000000E+00  0.00000000000E+00 -0.78866326077E+02  0.78866326077E+02  0.00000000000E+00 0.  1.
        6    1    1    2  501    0  0.12898661009E+03 -0.17572602848E+02  0.16325072562E+03  0.27198829270E+03  0.17430000000E+03 0.  1.
       -6    1    1    2    0  503 -0.12898661009E+03  0.17572602848E+02  0.45847775882E+03  0.50747284389E+03  0.17430000000E+03 0.  1.
</event>
<event>
 4 661  0.7533903E-01  0.9118800E+02  0.7818608E-02  0.1300000E+00
       21   -1    0    0  501  502  0.00000000000E+00  0.00000000000E+00  0.16854741990E+03  0.16854741990E+03  0.00000000000E+00 0.  1.
       21   -1    0    0  502  503  0.00000000000E+00  0.00000000000E+00 -0.38782699996E+03  0.38782699996E+03  0.00000000000E+00 0.  1.
        6    1    1    2  501    0  0.14565378849E+03  0.18935729097E+02  0.16375334627E+02  0.22852183599E+03  0.17430000000E+03 0.  1.
       -6    1    1    2    0  503 -0.14565378849E+03 -0.18935729097E+02 -0.23565491469E+03  0.32785258388E+03  0.17430000000E+03 0.  1.
</event>
<event>
 4 661  0.7533903E-01  0.9118800E+02  0.7818608E-02  0.1300000E+00
       21   -1    0    0  502  503  0.00000000000E+00  0.00000000000E+00  0.11786797779E+04  0.11786797779E+04  0.00000000000E+00 0. -1.
       21   -1    0    0  501  502  0.00000000000E+00  0.00000000000E+00 -0.62448218540E+02  0.62448218540E+02  0.00000000000E+00 0.  1.
        6    1    1    2  501    0  0.93468704039E+02 -0.94192902492E+02  0.19201978404E+03  0.29130875198E+03  0.17430000000E+03 0.  1.
       -6    1    1    2    0  503 -0.93468704039E+02  0.94192902492E+02  0.92421177528E+03  0.94981924443E+03  0.17430000000E+03 0.  1.
</event>
<event>
 4 661  0.7533903E-01  0.9118800E+02  0.7818608E-02  0.1300000E+00
       21   -1    0    0  502  503  0.00000000000E+00  0.00000000000E+00  0.12272169994E+03  0.12272169994E+03  0.00000000000E+00 0.  1.
       21   -1    0    0  501  502  0.00000000000E+00  0.00000000000E+00 -0.58232913695E+03  0.58232913695E+03  0.00000000000E+00 0.  1.
        6    1    1    2  501    0  0.49396668941E+02  0.77759201067E+02 -0.46789145438E+03  0.50772967940E+03  0.17430000000E+03 0.  1.
       -6    1    1    2    0  503 -0.49396668941E+02 -0.77759201067E+02  0.82840173788E+01  0.19732115750E+03  0.17430000000E+03 0.  1.
</event>
<event>
 4 661  0.7533903E-01  0.9118800E+02  0.7818608E-02  0.1300000E+00
       -2   -1    0    0    0  502  0.00000000000E+00  0.00000000000E+00  0.46614959773E+02  0.46614959773E+02  0.00000000000E+00 0.  1.
        2   -1    0    0  501    0  0.00000000000E+00  0.00000000000E+00 -0.10701075082E+04  0.10701075082E+04  0.00000000000E+00 0. -1.
        6    1    1    2  501    0  0.43962451398E+02  0.11551104612E+03 -0.34920766576E+03  0.40939221137E+03  0.17430000000E+03 0.  1.
       -6    1    1    2    0  502 -0.43962451398E+02 -0.11551104612E+03 -0.67428488271E+03  0.70733025664E+03  0.17430000000E+03 0. -1.
</event>
<event>
 4 661  0.7533903E-01  0.9118800E+02  0.7818608E-02  0.1300000E+00
       21   -1    0    0  502  503  0.00000000000E+00  0.00000000000E+00  0.80210282110E+03  0.80210282110E+03  0.00000000000E+00 0. -1.
       21   -1    0    0  501  502  0.00000000000E+00  0.00000000000E+00 -0.56850204211E+02  0.56850204211E+02  0.00000000000E+00 0. -1.
        6    1    1    2  501    0 -0.62054839472E+02 -0.84012995350E+02  0.24058532824E+03  0.31491391944E+03  0.17430000000E+03 0. -1.
       -6    1    1    2    0  503  0.62054839472E+02  0.84012995350E+02  0.50466728865E+03  0.54403910587E+03  0.17430000000E+03 0. -1.
</event>
<event>
 4 661  0.7533903E-01  0.9118800E+02  0.7818608E-02  0.1300000E+00
       21   -1    0    0  501  502  0.00000000000E+00  0.00000000000E+00  0.13584814753E+03  0.13584814753E+03  0.00000000000E+00 0.  1.
       21   -1    0    0  502  503  0.00000000000E+00  0.00000000000E+00 -0.29280966408E+03  0.29280966408E+03  0.00000000000E+00 0.  1.
        6    1    1    2  501    0 -0.31241343622E+02 -0.56778751926E+02 -0.10077201947E+01  0.18596062412E+03  0.17430000000E+03 0.  1.
       -6    1    1    2    0  503  0.31241343622E+02  0.56778751926E+02 -0.15595379635E+03  0.24269718750E+03  0.17430000000E+03 0.  1.
</event>
<event>
 4 661  0.7533903E-01  0.9118800E+02  0.7818608E-02  0.1300000E+00
       21   -1    0    0  501  502  0.00000000000E+00  0.00000000000E+00  0.11760400422E+03  0.11760400422E+03  0.00000000000E+00 0. -1.
       21   -1    0    0  502  503  0.00000000000E+00  0.00000000000E+00 -0.10913102954E+04  0.10913102954E+04  0.00000000000E+00 0.  1.
        6    1    1    2  501    0 -0.89793958313E+02  0.22646422695E+03 -0.15530474319E+03  0.33741525498E+03  0.17430000000E+03 0. -1.
       -6    1    1    2    0  503  0.89793958313E+02 -0.22646422695E+03 -0.81840154799E+03  0.87149904463E+03  0.17430000000E+03 0.  1.
</event>
<event>
 4 661  0.7533903E-01  0.9118800E+02  0.7818608E-02  0.1300000E+00
       21   -1    0    0  502  503  0.00000000000E+00  0.00000000000E+00  0.20873126835E+03  0.20873126835E+03  0.00000000000E+00 0. -1.
       21   -1    0    0  501  502  0.00000000000E+00  0.00000000000E+00 -0.30148131208E+03  0.30148131208E+03  0.00000000000E+00 0. -1.
        6    1    1    2  501    0  0.11237354951E+02 -0.14740063299E+03 -0.15154330966E+03  0.27422452380E+03  0.17430000000E+03 0. -1.
       -6    1    1    2    0  503 -0.11237354951E+02  0.14740063299E+03  0.58793265930E+02  0.23598805662E+03  0.17430000000E+03 0. -1.
</event>
<event>
 4 661  0.7533903E-01  0.9118800E+02  0.7818608E-02  0.1300000E+00
       21   -1    0    0  502  503  0.00000000000E+00  0.00000000000E+00  0.48958596098E+03  0.48958596098E+03  0.00000000000E+00 0.  1.
       21   -1    0    0  501  502  0.00000000000E+00  0.00000000000E+00 -0.11395725767E+03  0.11395725767E+03  0.00000000000E+00 0.  1.
        6    1    1    2  501    0 -0.30754835420E+02 -0.66619849374E+02  0.70118992658E+01  0.18924513458E+03  0.17430000000E+03 0.  1.
       -6    1    1    2    0  503  0.30754835420E+02  0.66619849374E+02  0.36861680405E+03  0.41429808406E+03  0.17430000000E+03 0.  1.
</event>
<event>
 4 661  0.7533903E-01  0.9118800E+02  0.7818608E-02  0.1300000E+00
       21   -1    0    0  501  502  0.00000000000E+00  0.00000000000E+00  0.50610870999E+03  0.50610870999E+03  0.00000000000E+00 0.  1.
       21   -1    0    0  502  503  0.00000000000E+00  0.00000000000E+00 -0.14357818914E+03  0.14357818914E+03  0.00000000000E+00 0. -1.
        6    1    1    2  501    0 -0.49090824460E+02  0.72677970485E+02  0.40539856252E+03  0.44991163681E+03  0.17430000000E+03 0.  1.
       -6    1    1    2    0  503  0.49090824460E+02 -0.72677970485E+02 -0.42868041674E+02  0.19977526232E+03  0.17430000000E+03 0. -1.
</event>
<event>
 4 661  0.7533903E-01  0.9118800E+02  0.7818608E-02  0.1300000E+00
       -2   -1    0    0    0  502  0.00000000000E+00  0.00000000000E+00  0.84184301104E+02  0.84184301104E+02  0.00000000000E+00 0. -1.
        2   -1    0    0  501    0  0.00000000000E+00  0.00000000000E+00 -0.42303148602E+03  0.42303148602E+03  0.00000000000E+00 0.  1.
        6    1    1    2  501    0  0.20494284748E+02 -0.68109391610E+02 -0.15173661212E+03  0.24179204782E+03  0.17430000000E+03 0.  1.
       -6    1    1    2    0  502 -0.20494284748E+02  0.68109391610E+02 -0.18711057280E+03  0.26542373930E+03  0.17430000000E+03 0.  1.
</event>
<event>
 4 661  0.7533903E-01  0.9118800E+02  0.7818608E-02  0.1300000E+00
       21   -1    0    0  501  502  0.00000000000E+00  0.00000000000E+00  0.10426345146E+04  0.10426345146E+04  0.00000000000E+00 0.  1.
       21   -1    0    0  502  503  0.00000000000E+00  0.00000000000E+00 -0.10402589689E+03  0.10402589689E+03  0.00000000000E+00 0.  1.
        6    1    1    2  501    0 -0.11796889091E+02  0.10431139935E+03  0.18486230926E+02  0.20430923954E+03  0.17430000000E+03 0.  1.
       -6    1    1    2    0  503  0.11796889091E+02 -0.10431139935E+03  0.92012238681E+03  0.94235117199E+03  0.17430000000E+03 0.  1.
</event>
<event>
 4 661  0.7533903E-01  0.9118800E+02  0.7818608E-02  0.1300000E+00
        2   -1    0    0  501    0  0.00000000000E+00  0.00000000000E+00  0.20516535017E+03  0.20516535017E+03  0.00000000000E+00 0.  1.
       -2   -1    0    0    0  502  0.00000000000E+00  0.00000000000E+00 -0.19536595641E+03  0.19536595641E+03  0.00000000000E+00 0. -1.
        6    1    1    2  501    0 -0.67607046645E+02 -0.61087885238E+02 -0.32519957525E+02  0.19935014451E+03  0.17430000000E+03 0.  1.
       -6    1    1    2    0  502  0.67607046645E+02  0.61087885238E+02  0.42319351284E+02  0.20118116207E+03  0.17430000000E+03 0.  1.
</event>
<event>
 4 661  0.7533903E-01  0.9118800E+02  0.7818608E-02  0.1300000E+00
       21   -1    0    0  502  503  0.00000000000E+00  0.00000000000E+00  0.12987270463E+03  0.12987270463E+03  0.00000000000E+00 0.  1.
       21   -1    0    0  501  502  0.00000000000E+00  0.00000000000E+00 -0.44523603751E+03  0.44523603751E+03  0.00000000000E+00 0.  1.
        6    1    1    2  501    0 -0.75051832485E+02 -0.22495007141E+02 -0.33222519286E+03  0.38326605860E+03  0.17430000000E+03 0.  1.
       -6    1    1    2    0  503  0.75051832485E+02  0.22495007141E+02  0.16861859982E+02  0.19184268354E+03  0.17430000000E+03 0.  1.
</event>
<event>
 4 661  0.7533903E-01  0.9118800E+02  0.7818608E-02  0.1300000E+00
       21   -1    0    0  502  503  0.00000000000E+00  0.00000000000E+00  0.35121205540E+03  0.35121205540E+03  0.00000000000E+00 0.  1.
       21   -1    0    0  501  502  0.00000000000E+00  0.00000000000E+00 -0.16321437618E+03  0.16321437618E+03  0.00000000000E+00 0.  1.
        6    1    1    2  501    0 -0.14893419866E+03  0.26047624849E+02  0.25356504233E+02  0.23212780230E+03  0.17430000000E+03 0.  1.
       -6    1    1    2    0  503  0.14893419866E+03 -0.26047624849E+02  0.16264117498E+03  0.28229862928E+03  0.17430000000E+03 0.  1.
</event>
<event>
 4 661  0.7533903E-01  0.9118800E+02  0.7818608E-02  0.1300000E+00
        1   -1    0    0  501    0  0.00000000000E+00  0.00000000000E+00  0.10053485898E+04  0.10053485898E+04  0.00000000000E+00 0. -1.
       -1   -1    0    0    0  502  0.00000000000E+00  0.00000000000E+00 -0.38046793144E+02  0.38046793144E+02  0.00000000000E+00 0.  1.
        6    1    1    2  501    0  0.81029882071E+02 -0.32623331917E+02  0.44235432092E+03  0.48341282441E+03  0.17430000000E+03 0.  1.
       -6    1    1    2    0  502 -0.81029882071E+02  0.32623331917E+02  0.52494747576E+03  0.55998255855E+03  0.17430000000E+03 0. -1.
</event>
<event>
 4 661  0.7533903E-01  0.9118800E+02  0.7818608E-02  0.1300000E+00
       21   -1    0    0  501  502  0.00000000000E+00  0.00000000000E+00  0.46339248473E+03  0.46339248473E+03  0.00000000000E+00 0. -1.
       21   -1    0    0  502  503  0.00000000000E+00  0.00000000000E+00 -0.29147819932E+03  0.29147819932E+03  0.00000000000E+00 0. -1.
        6    1    1    2  501    0 -0.27892618449E+02 -0.90157540175E+02  0.40379588917E+03  0.44981995323E+03  0.17430000000E+03 0. -1.
       -6    1    1    2    0  503  0.27892618449E+02  0.90157540175E+02 -0.23188160375E+03  0.30505073082E+03  0.17430000000E+03 0. -1.
</event>
<event>
 4 661  0.7533903E-01  0.9118800E+02  0.7818608E-02  0.1300000E+00
       21   -1    0    0  502  503  0.00000000000E+00  0.00000000000E+00  0.96807414592E+02  0.96807414592E+02  0.00000000000E+00 0. -1.
       21   -1    0    0  501  502  0.00000000000E+00  0.00000000000E+00 -0.93061483940E+03  0.93061483940E+03  0.00000000000E+00 0. -1.
        6    1    1    2  501    0  0.52228418023E+02  0.46304497010E+02 -0.81769708188E+03  0.83897611516E+03  0.17430000000E+03 0. -1.
       -6    1    1    2    0  503 -0.52228418023E+02 -0.46304497010E+02 -0.16110342931E+02  0.18844613884E+03  0.17430000000E+03 0. -1.
</event>
<event>
 4 661  0.7533903E-01  0.9118800E+02  0.7818608E-02  0.1300000E+00
       21   -1    0    0  501  502  0.00000000000E+00  0.00000000000E+00  0.62985566687E+03  0.62985566687E+03  0.00000000000E+00 0.  1.
       21   -1    0    0  502  503  0.00000000000E+00  0.00000000000E+00 -0.10023764568E+03  0.10023764568E+03  0.00000000000E+00 0.  1.
        6    1    1    2  501    0  0.67638945375E+02  0.99777669910E+02  0.46093540847E+03  0.50731898360E+03  0.17430000000E+03 0.  1.
       -6    1    1    2    0  503 -0.67638945375E+02 -0.99777669910E+02  0.68682612722E+02  0.22277432894E+03  0.17430000000E+03 0.  1.
</event>
<event>
 4 661  0.7533903E-01  0.9118800E+02  0.7818608E-02  0.1300000E+00
       21   -1    0    0  502  503  0.00000000000E+00  0.00000000000E+00  0.41396323412E+03  0.41396323412E+03  0.00000000000E+00 0.  1.
       21   -1    0    0  501  502  0.00000000000E+00  0.00000000000E+00 -0.27293801699E+03  0.27293801699E+03  0.00000000000E+00 0. -1.
        6    1    1    2  501    0 -0.14958388502E+03 -0.10750241549E+02  0.32103266630E+03  0.39488399459E+03  0.17430000000E+03 0.  1.
       -6    1    1    2    0  503  0.14958388502E+03  0.10750241549E+02 -0.18000744917E+03  0.29201725652E+03  0.17430000000E+03 0. -1.
</event>
<event>
 4 661  0.7533903E-01  0.9118800E+02  0.7818608E-02  0.1300000E+00
       21   -1    0    0  501  502  0.00000000000E+00  0.00000000000E+00  0.33240781573E+03  0.33240781573E+03  0.00000000000E+00 0. -1.
       21   -1    0    0  502  503  0.00000000000E+00  0.00000000000E+00 -0.19419884212E+03  0.19419884212E+03  0.00000000000E+00 0.  1.
        6    1    1    2  501    0 -0.11948236935E+03  0.13524238497E+03  0.27571322662E+02  0.25240286669E+03  0.17430000000E+03 0.  1.
       -6    1    1    2    0  503  0.11948236935E+03 -0.13524238497E+03  0.11063765095E+03  0.27420379116E+03  0.17430000000E+03 0. -1.
</event>
<event>
 4 661  0.7533903E-01  0.9118800E+02  0.7818608E-02  0.1300000E+00
       21   -1    0    0  502  503  0.00000000000E+00  0.00000000000E+00  0.45804690759E+03  0.45804690759E+03  0.00000000000E+00 0.  1.
       21   -1    0    0  501  502  0.00000000000E+00  0.00000000000E+00 -0.86886205194E+02  0.86886205194E+02  0.00000000000E+00 0.  1.
        6    1    1    2  501    0  0.76774480192E+01  0.13470025915E+02  0.54741978081E+02  0.18335091756E+03  0.17430000000E+03 0.  1.
       -6    1    1    2    0  503 -0.76774480192E+01 -0.13470025915E+02  0.31641872432E+03  0.36158219523E+03  0.17430000000E+03 0.  1.
</event>
<event>
 4 661  0.7533903E-01  0.9118800E+02  0.7818608E-02  0.1300000E+00
       21   -1    0    0  501  502  0.00000000000E+00  0.00000000000E+00  0.24022821191E+02  0.24022821191E+02  0.00000000000E+00 0.  1.
       21   -1    0    0  502  503  0.00000000000E+00  0.00000000000E+00 -0.16782694964E+04  0.16782694964E+04  0.00000000000E+00 0.  1.
        6    1    1    2  501    0  0.50218131224E+02 -0.50522183219E+02 -0.53154985056E+03  0.56391496285E+03  0.17430000000E+03 0.  1.
       -6    1    1    2    0  503 -0.50218131224E+02  0.50522183219E+02 -0.11226968246E+04  0.11383773547E+04  0.17430000000E+03 0.  1.
</event>
<event>
 4 661  0.7533903E-01  0.9118800E+02  0.7818608E-02  0.1300000E+00
       21   -1    0    0  502  503  0.00000000000E+00  0.00000000000E+00  0.24687225031E+03  0.24687225031E+03  0.00000000000E+00 0. -1.
       21   -1    0    0  501  502  0.00000000000E+00  0.00000000000E+00 -0.23062139824E+03  0.23062139824E+03  0.00000000000E+00 0. -1.
        6    1    1    2  501    0  0.45776881132E+02  0.36441270242E+01 -0.14831330942E+03  0.23342264299E+03  0.17430000000E+03 0. -1.
       -6    1    1    2    0  503 -0.45776881132E+02 -0.36441270242E+01  0.16456416150E+03  0.24407100556E+03  0.17430000000E+03 0. -1.
</event>
<event>
 4 661  0.7533903E-01  0.9118800E+02  0.7818608E-02  0.1300000E+00
       21   -1    0    0  502  503  0.00000000000E+00  0.00000000000E+00  0.13783603736E+03  0.13783603736E+03  0.00000000000E+00 0. -1.
       21   -1    0    0  501  502  0.00000000000E+00  0.00000000000E+00 -0.32082084284E+03  0.32082084284E+03  0.00000000000E+00 0. -1.
        6    1    1    2  501    0 -0.93122475267E+02  0.70822760528E+02 -0.78024016232E+02  0.22395512032E+03  0.17430000000E+03 0. -1.
       -6    1    1    2    0  503  0.93122475267E+02 -0.70822760528E+02 -0.10496078926E+03  0.23470175988E+03  0.17430000000E+03 0. -1.
</event>
<event>
 4 661  0.7533903E-01  0.9118800E+02  0.7818608E-02  0.1300000E+00
       21   -1    0    0  502  503  0.00000000000E+00  0.00000000000E+00  0.59786523291E+03  0.59786523291E+03  0.00000000000E+00 0.  1.
       21   -1    0    0  501  502  0.00000000000E+00  0.00000000000E+00 -0.89469317440E+02  0.89469317440E+02  0.00000000000E+00 0.  1.
        6    1    1    2  501    0 -0.24310684390E+02 -0.76899687092E+02  0.62716873149E+02  0.20203580729E+03  0.17430000000E+03 0.  1.
       -6    1    1    2    0  503  0.24310684390E+02  0.76899687092E+02  0.44567904232E+03  0.48529874306E+03  0.17430000000E+03 0.  1.
</event>
<event>
 4 661  0.7533903E-01  0.9118800E+02  0.7818608E-02  0.1300000E+00
       21   -1    0    0  501  502  0.00000000000E+00  0.00000000000E+00  0.14503135997E+04  0.14503135997E+04  0.00000000000E+00 0. -1.
       21   -1    0    0  502  503  0.00000000000E+00  0.00000000000E+00 -0.34860997915E+02  0.34860997915E+02  0.00000000000E+00 0.  1.
        6    1    1    2  501    0 -0.97038322245E+02  0.55039432240E+02  0.99814452406E+03  0.10193717457E+04  0.17430000000E+03 0. -1.
       -6    1    1    2    0  503  0.97038322245E+02 -0.55039432240E+02  0.41730807770E+03  0.46580285186E+03  0.17430000000E+03 0.  1.
</event>
<event>
 4 661  0.7533903E-01  0.9118800E+02  0.7818608E-02  0.1300000E+00
       21   -1    0    0  502  503  0.00000000000E+00  0.00000000000E+00  0.10025836090E+03  0.10025836090E+03  0.00000000000E+00 0.  1.
       21   -1    0    0  501  502  0.00000000000E+00  0.00000000000E+00 -0.38477494392E+03  0.38477494392E+03  0.00000000000E+00 0.  1.
        6    1    1    2  501    0  0.85824147811E+01 -0.62193081643E+02 -0.22279916263E+03  0.28976127091E+03  0.17430000000E+03 0. -1.
       -6    1    1    2    0  503 -0.85824147811E+01  0.62193081643E+02 -0.61717420394E+02  0.19527203391E+03  0.17430000000E+03 0. -1.
</event>
<event>
 4 661  0.7533903E-01  0.9118800E+02  0.7818608E-02  0.1300000E+00
       21   -1    0    0  501  502  0.00000000000E+00  0.00000000000E+00  0.16912589137E+04  0.16912589137E+04  0.00000000000E+00 0. -1.
       21   -1    0    0  502  503  0.00000000000E+00  0.00000000000E+00 -0.16486376745E+03  0.16486376745E+03  0.00000000000E+00 0.  1.
        6    1    1    2  501    0 -0.40286690589E+03  0.47323663557E+02  0.12722990717E+04  0.13467244302E+04  0.17430000000E+03 0. -1.
       -6    1    1    2    0  503  0.40286690589E+03 -0.47323663557E+02  0.25409607456E+03  0.50939825098E+03  0.17430000000E+03 0.  1.
</event>
<event>
 4 661  0.7533903E-01  0.9118800E+02  0.7818608E-02  0.1300000E+00
       21   -1    0    0  501  502  0.00000000000E+00  0.00000000000E+00  0.23003353638E+04  0.23003353638E+04  0.00000000000E+00 0. -1.
       21   -1    0    0  502  503  0.00000000000E+00  0.00000000000E+00 -0.19378409551E+02  0.19378409551E+02  0.00000000000E+00 0. -1.
        6    1    1    2  501    0 -0.99528911063E+01 -0.76657044775E+02  0.16385730107E+04  0.16496294626E+04  0.17430000000E+03 0. -1.
       -6    1    1    2    0  503  0.99528911063E+01  0.76657044775E+02  0.64238394353E+03  0.67008431071E+03  0.17430000000E+03 0. -1.
</event>
<event>
 4 661  0.7533903E-01  0.9118800E+02  0.7818608E-02  0.1300000E+00
       21   -1    0    0  501  502  0.00000000000E+00  0.00000000000E+00  0.19087441400E+04  0.19087441400E+04  0.00000000000E+00 0.  1.
       21   -1    0    0  502  503  0.00000000000E+00  0.00000000000E+00 -0.35012743140E+02  0.35012743140E+02  0.00000000000E+00 0.  1.
        6    1    1    2  501    0 -0.61284003685E+01 -0.39241044083E+02  0.16389129167E+04  0.16486338149E+04  0.17430000000E+03 0.  1.
       -6    1    1    2    0  503  0.61284003685E+01  0.39241044083E+02  0.23481848016E+03  0.29512306832E+03  0.17430000000E+03 0.  1.
</event>
<event>
 4 661  0.7533903E-01  0.9118800E+02  0.7818608E-02  0.1300000E+00
       21   -1    0    0  502  503  0.00000000000E+00  0.00000000000E+00  0.64095211839E+03  0.64095211839E+03  0.00000000000E+00 0.  1.
       21   -1    0    0  501  502  0.00000000000E+00  0.00000000000E+00 -0.11344046897E+03  0.11344046897E+03  0.00000000000E+00 0.  1.
        6    1    1    2  501    0 -0.58875382464E+02  0.18808481282E+03  0.18115017411E+03  0.31943400422E+03  0.17430000000E+03 0.  1.
       -6    1    1    2    0  503  0.58875382464E+02 -0.18808481282E+03  0.34636147531E+03  0.43495858314E+03  0.17430000000E+03 0.  1.
</event>
<event>
 4 661  0.7533903E-01  0.9118800E+02  0.7818608E-02  0.1300000E+00
       21   -1    0    0  502  503  0.00000000000E+00  0.00000000000E+00  0.26869442935E+02  0.26869442935E+02  0.00000000000E+00 0.  1.
       21   -1    0    0  501  502  0.00000000000E+00  0.00000000000E+00 -0.16231070186E+04  0.16231070186E+04  0.00000000000E+00 0.  1.
        6    1    1    2  501    0 -0.78907292146E+02 -0.50266676896E+01 -0.11281600973E+04  0.11442802643E+04  0.17430000000E+03 0.  1.
       -6    1    1    2    0  503  0.78907292146E+02  0.50266676896E+01 -0.46807747841E+03  0.50569619727E+03  0.17430000000E+03 0.  1.
</event>
<event>
 4 661  0.7533903E-01  0.9118800E+02  0.7818608E-02  0.1300000E+00
       21   -1    0    0  501  502  0.00000000000E+00  0.00000000000E+00  0.44489236201E+03  0.44489236201E+03  0.00000000000E+00 0. -1.
       21   -1    0    0  502  503  0.00000000000E+00  0.00000000000E+00 -0.12088079757E+03  0.12088079757E+03  0.00000000000E+00 0. -1.
        6    1    1    2  501    0  0.11911106420E+03  0.47452404367E+02  0.26376840253E+03  0.34116482302E+03  0.17430000000E+03 0. -1.
       -6    1    1    2    0  503 -0.11911106420E+03 -0.47452404367E+02  0.60243161923E+02  0.22460833656E+03  0.17430000000E+03 0. -1.
</event>
<event>
 4 661  0.7533903E-01  0.9118800E+02  0.7818608E-02  0.1300000E+00
       21   -1    0    0  502  503  0.00000000000E+00  0.00000000000E+00  0.38117300124E+03  0.38117300124E+03  0.00000000000E+00 0.  1.
       21   -1    0    0  501  502  0.00000000000E+00  0.00000000000E+00 -0.13200444383E+03  0.13200444383E+03  0.00000000000E+00 0.  1.
        6    1    1    2  501    0  0.10715728694E+03  0.68717644708E+02  0.54711360019E+02  0.22266257376E+03  0.17430000000E+03 0.  1.
       -6    1    1    2    0  503 -0.10715728694E+03 -0.68717644708E+02  0.19445719739E+03  0.29051487131E+03  0.17430000000E+03 0.  1.
</event>
<event>
 4 661  0.7533903E-01  0.9118800E+02  0.7818608E-02  0.1300000E+00
       21   -1    0    0  501  502  0.00000000000E+00  0.00000000000E+00  0.43177274917E+03  0.43177274917E+03  0.00000000000E+00 0. -1.
       21   -1    0    0  502  503  0.00000000000E+00  0.00000000000E+00 -0.21219143458E+03  0.21219143458E+03  0.00000000000E+00 0. -1.
        6    1    1    2  501    0  0.18631879930E+03 -0.16219536723E+03  0.94158325769E+02  0.31665172104E+03  0.17430000000E+03 0.  1.
       -6    1    1    2    0  503 -0.18631879930E+03  0.16219536723E+03  0.12542298882E+03  0.32731246271E+03  0.17430000000E+03 0.  1.
</event>
<event>
 4 661  0.7533903E-01  0.9118800E+02  0.7818608E-02  0.1300000E+00
       21   -1    0    0  501  502  0.00000000000E+00  0.00000000000E+00  0.20416470833E+03  0.20416470833E+03  0.00000000000E+00 0.  1.
       21   -1    0    0  502  503  0.00000000000E+00  0.00000000000E+00 -0.23282019077E+03  0.23282019077E+03  0.00000000000E+00 0.  1.
        6    1    1    2  501    0 -0.44860428706E+01 -0.10824244841E+03  0.59428729390E+02  0.21365583562E+03  0.17430000000E+03 0.  1.
       -6    1    1    2    0  503  0.44860428706E+01  0.10824244841E+03 -0.88084211829E+02  0.22332906348E+03  0.17430000000E+03 0.  1.
</event>
<event>
 4 661  0.7533903E-01  0.9118800E+02  0.7818608E-02  0.1300000E+00
        1   -1    0    0  501    0  0.00000000000E+00  0.00000000000E+00  0.63052112468E+03  0.63052112468E+03  0.00000000000E+00 0.  1.
       -1   -1    0    0    0  502  0.00000000000E+00  0.00000000000E+00 -0.14814235321E+03  0.14814235321E+03  0.00000000000E+00 0. -1.
        6    1    1    2  501    0 -0.55440327354E+01 -0.38985273910E+02  0.55704055023E+03  0.58500021579E+03  0.17430000000E+03 0.  1.
       -6    1    1    2    0  502  0.55440327354E+01  0.38985273910E+02 -0.74661778753E+02  0.19366326210E+03  0.17430000000E+03 0. -1.
</event>
<event>
 4 661  0.7533903E-01  0.9118800E+02  0.7818608E-02  0.1300000E+00
       21   -1    0    0  502  503  0.00000000000E+00  0.00000000000E+00  0.90585118713E+02  0.90585118713E+02  0.00000000000E+00 0. -1.
       21   -1    0    0  501  502  0.00000000000E+00  0.00000000000E+00 -0.16028779323E+04  0.16028779323E+04  0.00000000000E+00 0. -1.
        6    1    1    2  501    0  0.12656219462E+03  0.83220261763E+02 -0.14296819897E+04  0.14482108557E+04  0.17430000000E+03 0. -1.
       -6    1    1    2    0  503 -0.12656219462E+03 -0.83220261763E+02 -0.82610823958E+02  0.24525219532E+03  0.17430000000E+03 0. -1.
</event>
<event>
 4 661  0.7533903E-01  0.9118800E+02  0.7818608E-02  0.1300000E+00
       21   -1    0    0  502  503  0.00000000000E+00  0.00000000000E+00  0.18350350224E+03  0.18350350224E+03  0.00000000000E+00 0. -1.
       21   -1    0    0  501  502  0.00000000000E+00  0.00000000000E+00 -0.80107506213E+03  0.80107506213E+03  0.00000000000E+00 0.  1.
        6    1    1    2  501    0 -0.25893501644E+03 -0.20966952943E+03 -0.40496455037E+03  0.55261689385E+03  0.17430000000E+03 0.  1.
       -6    1    1    2    0  503  0.25893501644E+03  0.20966952943E+03 -0.21260700952E+03  0.43196167053E+03  0.17430000000E+03 0. -1.
</event>
<event>
 4 661  0.7533903E-01  0.9118800E+02  0.7818608E-02  0.1300000E+00
       21   -1    0    0  501  502  0.00000000000E+00  0.00000000000E+00  0.98375372906E+02  0.98375372906E+02  0.00000000000E+00 0. -1.
       21   -1    0    0  502  503  0.00000000000E+00  0.00000000000E+00 -0.50982312129E+03  0.50982312129E+03  0.00000000000E+00 0. -1.
        6    1    1    2  501    0  0.63941699849E+02  0.11606281862E+03 -0.26962278343E+03  0.34732701333E+03  0.17430000000E+03 0. -1.
       -6    1    1    2    0  503 -0.63941699849E+02 -0.11606281862E+03 -0.14182496496E+03  0.26087148087E+03  0.17430000000E+03 0. -1.
</event>
<event>
 4 661  0.7533903E-01  0.9118800E+02  0.7818608E-02  0.1300000E+00
       21   -1    0    0  501  502  0.00000000000E+00  0.00000000000E+00  0.27348668280E+02  0.27348668280E+02  0.00000000000E+00 0. -1.
       21   -1    0    0  502  503  0.00000000000E+00  0.00000000000E+00 -0.12233461591E+04  0.12233461591E+04  0.00000000000E+00 0. -1.
        6    1    1    2  501    0  0.30429116655E+02 -0.64422225460E+00 -0.43947180411E+03  0.47375341980E+03  0.17430000000E+03 0. -1.
       -6    1    1    2    0  503 -0.30429116655E+02  0.64422225460E+00 -0.75652568671E+03  0.77694140758E+03  0.17430000000E+03 0. -1.
</event>
<event>
 4 661  0.7533903E-01  0.9118800E+02  0.7818608E-02  0.1300000E+00
       21   -1    0    0  501  502  0.00000000000E+00  0.00000000000E+00  0.11893967196E+03  0.11893967196E+03  0.00000000000E+00 0.  1.
       21   -1    0    0  502  503  0.00000000000E+00  0.00000000000E+00 -0.31202386855E+03  0.31202386855E+03  0.00000000000E+00 0.  1.
        6    1    1    2  501    0 -0.32997255909E+02  0.26679981820E+01 -0.18051186220E+03  0.25310266594E+03  0.17430000000E+03 0. -1.
       -6    1    1    2    0  503  0.32997255909E+02 -0.26679981820E+01 -0.12572334401E+02  0.17786087457E+03  0.17430000000E+03 0. -1.
</event>
<event>
 4 661  0.7533903E-01  0.9118800E+02  0.7818608E-02  0.1300000E+00
       21   -1    0    0  501  502  0.00000000000E+00  0.00000000000E+00  0.24346335869E+04  0.24346335869E+04  0.00000000000E+00 0. -1.
       21   -1    0    0  502  503  0.00000000000E+00  0.00000000000E+00 -0.30263691608E+02  0.30263691608E+02  0.00000000000E+00 0.  1.
        6    1    1    2  501    0  0.99183602098E+02 -0.16021313686E+03  0.16030476231E+04  0.16234678340E+04  0.17430000000E+03 0.  1.
       -6    1    1    2    0  503 -0.99183602098E+02  0.16021313686E+03  0.80132227217E+03  0.84142944447E+03  0.17430000000E+03 0. -1.
</event>
<event>
 4 661  0.7533903E-01  0.9118800E+02  0.7818608E-02  0.1300000E+00
        2   -1    0    0  501    0  0.00000000000E+00  0.00000000000E+00  0.12192654756E+03  0.12192654756E+03  0.00000000000E+00 0.  1.
       -2   -1    0    0    0  502  0.00000000000E+00  0.00000000000E+00 -0.30282281246E+03  0.30282281246E+03  0.00000000000E+00 0. -1.
        6    1    1    2  501    0  0.43462958784E+02 -0.67250933272E+02 -0.10304664946E+03  0.21774025530E+03  0.17430000000E+03 0.  1.
       -6    1    1    2    0  502 -0.43462958784E+02  0.67250933272E+02 -0.77849615440E+02  0.20700910472E+03  0.17430000000E+03 0. -1.
</event>
<event>
 4 661  0.7533903E-01  0.9118800E+02  0.7818608E-02  0.1300000E+00
       21   -1    0    0  502  503  0.00000000000E+00  0.00000000000E+00  0.42511299570E+03  0.42511299570E+03  0.00000000000E+00 0.  1.
       21   -1    0    0  501  502  0.00000000000E+00  0.00000000000E+00 -0.11964910951E+03  0.11964910951E+03  0.00000000000E+00 0.  1.
        6    1    1    2  501    0  0.14018367185E+03  0.14226364181E+02  0.12241694781E+03  0.25538255697E+03  0.17430000000E+03 0.  1.
       -6    1    1    2    0  503 -0.14018367185E+03 -0.14226364181E+02  0.18304693838E+03  0.28937954824E+03  0.17430000000E+03 0.  1.
</event>
<event>
 4 661  0.7533903E-01  0.9118800E+02  0.7818608E-02  0.1300000E+00
       21   -1    0    0  502  503  0.00000000000E+00  0.00000000000E+00  0.14405588976E+03  0.14405588976E+03  0.00000000000E+00 0.  1.
       21   -1    0    0  501  502  0.00000000000E+00  0.00000000000E+00 -0.53846884787E+03  0.53846884787E+03  0.00000000000E+00 0.  1.
        6    1    1    2  501    0 -0.49372426515E+02 -0.18026797845E+03 -0.33284972277E+03  0.41964700464E+03  0.17430000000E+03 0.  1.
       -6    1    1    2    0  503  0.49372426515E+02  0.18026797845E+03 -0.61563235336E+02  0.26287773299E+03  0.17430000000E+03 0.  1.
</event>
<event>
 4 661  0.7533903E-01  0.9118800E+02  0.7818608E-02  0.1300000E+00
       21   -1    0    0  502  503  0.00000000000E+00  0.00000000000E+00  0.16201486244E+03  0.16201486244E+03  0.00000000000E+00 0. -1.
       21   -1    0    0  501  502  0.00000000000E+00  0.00000000000E+00 -0.36830620769E+03  0.36830620769E+03  0.00000000000E+00 0. -1.
        6    1    1    2  501    0  0.84953906659E+01  0.49716387262E+02 -0.28067169900E+03  0.33421697061E+03  0.17430000000E+03 0. -1.
       -6    1    1    2    0  503 -0.84953906659E+01 -0.49716387262E+02  0.74380353747E+02  0.19610409952E+03  0.17430000000E+03 0. -1.
</event>
<event>
 4 661  0.7533903E-01  0.9118800E+02  0.7818608E-02  0.1300000E+00
       21   -1    0    0  502  503  0.00000000000E+00  0.00000000000E+00  0.23444976577E+03  0.23444976577E+03  0.00000000000E+00 0. -1.
       21   -1    0    0  501  502  0.00000000000E+00  0.00000000000E+00 -0.32659773258E+03  0.32659773258E+03  0.00000000000E+00 0. -1.
        6    1    1    2  501    0  0.16906788373E+03  0.35869512198E+02 -0.17558128215E+03  0.30179438010E+03  0.17430000000E+03 0. -1.
       -6    1    1    2    0  503 -0.16906788373E+03 -0.35869512198E+02  0.83433315339E+02  0.25925311825E+03  0.17430000000E+03 0. -1.
</event>
<event>
 4 661  0.7533903E-01  0.9118800E+02  0.7818608E-02  0.1300000E+00
       21   -1    0    0  502  503  0.00000000000E+00  0.00000000000E+00  0.30520314933E+03  0.30520314933E+03  0.00000000000E+00 0.  1.
       21   -1    0    0  501  502  0.00000000000E+00  0.00000000000E+00 -0.24336654108E+03  0.24336654108E+03  0.00000000000E+00 0.  1.
        6    1    1    2  501    0 -0.10824425842E+03  0.16211920215E+03 -0.46361546717E+02  0.26557360223E+03  0.17430000000E+03 0.  1.
       -6    1    1    2    0  503  0.10824425842E+03 -0.16211920215E+03  0.10819815497E+03  0.28299608818E+03  0.17430000000E+03 0.  1.
</event>
<event>
 4 661  0.7533903E-01  0.9118800E+02  0.7818608E-02  0.1300000E+00
       21   -1    0    0  501  502  0.00000000000E+00  0.00000000000E+00  0.13672249287E+03  0.13672249287E+03  0.00000000000E+00 0.  1.
       21   -1    0    0  502  503  0.00000000000E+00  0.00000000000E+00 -0.24842533241E+03  0.24842533241E+03  0.00000000000E+00 0.  1.
        6    1    1    2  501    0 -0.44672496771E+02  0.49603084874E+01 -0.14519862973E+02  0.18058669123E+03  0.17430000000E+03 0. -1.
       -6    1    1    2    0  503  0.44672496771E+02 -0.49603084874E+01 -0.97182976569E+02  0.20456113405E+03  0.17430000000E+03 0. -1.
</event>
<event>
 4 661  0.7533903E-01  0.9118800E+02  0.7818608E-02  0.1300000E+00
       21   -1    0    0  501  502  0.00000000000E+00  0.00000000000E+00  0.11236251967E+03  0.11236251967E+03  0.00000000000E+00 0.  1.
       21   -1    0    0  502  503  0.00000000000E+00  0.00000000000E+00 -0.48513739624E+03  0.48513739624E+03  0.00000000000E+00 0.  1.
        6    1    1    2  501    0 -0.47035522933E+02  0.91239322233E+01  0.26915049305E+01  0.18078528910E+03  0.17430000000E+03 0.  1.
       -6    1    1    2    0  503  0.47035522933E+02 -0.91239322233E+01 -0.37546638150E+03  0.41671462681E+03  0.17430000000E+03 0.  1.
</event>
<event>
 4 661  0.7533903E-01  0.9118800E+02  0.7818608E-02  0.1300000E+00
        2   -1    0    0  501    0  0.00000000000E+00  0.00000000000E+00  0.70788090736E+03  0.70788090736E+03  0.00000000000E+00 0. -1.
       -2   -1    0    0    0  502  0.00000000000E+00  0.00000000000E+00 -0.49926764361E+03  0.49926764361E+03  0.00000000000E+00 0.  1.
        6    1    1    2  501    0  0.79480215502E+02 -0.87446045748E+02  0.66874651885E+03  0.70111790167E+03  0.17430000000E+03 0. -1.
       -6    1    1    2    0  502 -0.79480215502E+02  0.87446045748E+02 -0.46013325510E+03  0.50603064929E+03  0.17430000000E+03 0.  1.
</event>
<event>
 4 661  0.7533903E-01  0.9118800E+02  0.7818608E-02  0.1300000E+00
       21   -1    0    0  501  502  0.00000000000E+00  0.00000000000E+00  0.11298375799E+03  0.11298375799E+03  0.00000000000E+00 0. -1.
       21   -1    0    0  502  503  0.00000000000E+00  0.00000000000E+00 -0.21176258911E+04  0.21176258911E+04  0.00000000000E+00 0.  1.
        6    1    1    2  501    0  0.97708078513E+02  0.13243896244E+02  0.15229719449E+02  0.20083501624E+03  0.17430000000E+03 0. -1.
       -6    1    1    2    0  503 -0.97708078513E+02 -0.13243896244E+02 -0.20198718525E+04  0.20297746328E+04  0.17430000000E+03 0.  1.
</event>
<event>
 4 661  0.7533903E-01  0.9118800E+02  0.7818608E-02  0.1300000E+00
       21   -1    0    0  502  503  0.00000000000E+00  0.00000000000E+00  0.47699771770E+03  0.47699771770E+03  0.00000000000E+00 0. -1.
       21   -1    0    0  501  502  0.00000000000E+00  0.00000000000E+00 -0.18914668166E+03  0.18914668166E+03  0.00000000000E+00 0. -1.
        6    1    1    2  501    0  0.17428902259E+03 -0.28974100862E+01 -0.46390364674E+02  0.25083383806E+03  0.17430000000E+03 0. -1.
       -6    1    1    2    0  503 -0.17428902259E+03  0.28974100862E+01  0.33424140071E+03  0.41531056130E+03  0.17430000000E+03 0. -1.
</event>
<event>
 4 661  0.7533903E-01  0.9118800E+02  0.7818608E-02  0.1300000E+00
       -2   -1    0    0    0  502  0.00000000000E+00  0.00000000000E+00  0.92502820039E+02  0.92502820039E+02  0.00000000000E+00 0.  1.
        2   -1    0    0  501    0  0.00000000000E+00  0.00000000000E+00 -0.12075654151E+04  0.12075654151E+04  0.00000000000E+00 0. -1.
        6    1    1    2  501    0 -0.99136110476E+02  0.26553999149E+03 -0.61851835708E+03  0.70234244036E+03  0.17430000000E+03 0. -1.
       -6    1    1    2    0  502  0.99136110476E+02 -0.26553999149E+03 -0.49654423803E+03  0.59772579483E+03  0.17430000000E+03 0.  1.
</event>
<event>
 4 661  0.7533903E-01  0.9118800E+02  0.7818608E-02  0.1300000E+00
       21   -1    0    0  502  503  0.00000000000E+00  0.00000000000E+00  0.50588224608E+03  0.50588224608E+03  0.00000000000E+00 0.  1.
       21   -1    0    0  501  502  0.00000000000E+00  0.00000000000E+00 -0.99221961081E+02  0.99221961081E+02  0.00000000000E+00 0.  1.
        6    1    1    2  501    0 -0.19528936426E+02 -0.10187080365E+03  0.74825699093E+02  0.21619069184E+03  0.17430000000E+03 0.  1.
       -6    1    1    2    0  503  0.19528936426E+02  0.10187080365E+03  0.33183458591E+03  0.38891351532E+03  0.17430000000E+03 0.  1.
</event>
<event>
 4 661  0.7533903E-01  0.9118800E+02  0.7818608E-02  0.1300000E+00
       21   -1    0    0  501  502  0.00000000000E+00  0.00000000000E+00  0.17211722884E+03  0.17211722884E+03  0.00000000000E+00 0.  1.
       21   -1    0    0  502  503  0.00000000000E+00  0.00000000000E+00 -0.25142107736E+03  0.25142107736E+03  0.00000000000E+00 0.  1.
        6    1    1    2  501    0  0.56077343574E+02  0.55507786920E+02  0.43473774512E+02  0.19620459205E+03  0.17430000000E+03 0.  1.
       -6    1    1    2    0  503 -0.56077343574E+02 -0.55507786920E+02 -0.12277762303E+03  0.22733371415E+03  0.17430000000E+03 0.  1.
</event>
<event>
 4 661  0.7533903E-01  0.9118800E+02  0.7818608E-02  0.1300000E+00
       21   -1    0    0  502  503  0.00000000000E+00  0.00000000000E+00  0.13344097204E+03  0.13344097204E+03  0.00000000000E+00 0.  1.
       21   -1    0    0  501  502  0.00000000000E+00  0.00000000000E+00 -0.47302055953E+03  0.47302055953E+03  0.00000000000E+00 0.  1.
        6    1    1    2  501    0 -0.92453717135E+02  0.11312550241E+03 -0.29862700799E+03  0.37537134814E+03  0.17430000000E+03 0.  1.
       -6    1    1    2    0  503  0.92453717135E+02 -0.11312550241E+03 -0.40952579496E+02  0.23109018342E+03  0.17430000000E+03 0.  1.
</event>
<event>
 4 661  0.7533903E-01  0.9118800E+02  0.7818608E-02  0.1300000E+00
       21   -1    0    0  502  503  0.00000000000E+00  0.00000000000E+00  0.15287917811E+03  0.15287917811E+03  0.00000000000E+00 0.  1.
       21   -1    0    0  501  502  0.00000000000E+00  0.00000000000E+00 -0.23472089078E+03  0.23472089078E+03  0.00000000000E+00 0.  1.
        6    1    1    2  501    0  0.66975748684E+02 -0.26836347081E+02 -0.58567088436E+02  0.19752603445E+03  0.17430000000E+03 0.  1.
       -6    1    1    2    0  503 -0.66975748684E+02  0.26836347081E+02 -0.23274624231E+02  0.19007403444E+03  0.17430000000E+03 0.  1.
</event>
<event>
 4 661  0.7533903E-01  0.9118800E+02  0.7818608E-02  0.1300000E+00
       21   -1    0    0  502  503  0.00000000000E+00  0.00000000000E+00  0.26143172469E+04  0.26143172469E+04  0.00000000000E+00 0.  1.
       21   -1    0    0  501  502  0.00000000000E+00  0.00000000000E+00 -0.12474703012E+03  0.12474703012E+03  0.00000000000E+00 0.  1.
        6    1    1    2  501    0  0.33327706195E+03 -0.10907402926E+03  0.24795524622E+03  0.46350085007E+03  0.17430000000E+03 0.  1.
       -6    1    1    2    0  503 -0.33327706195E+03  0.10907402926E+03  0.22416149705E+04  0.22755634269E+04  0.17430000000E+03 0.  1.
</event>
<event>
 4 661  0.7533903E-01  0.9118800E+02  0.7818608E-02  0.1300000E+00
        1   -1    0    0  501    0  0.00000000000E+00  0.00000000000E+00  0.20597831884E+04  0.20597831884E+04  0.00000000000E+00 0.  1.
       -1   -1    0    0    0  502  0.00000000000E+00  0.00000000000E+00 -0.22279203020E+02  0.22279203020E+02  0.00000000000E+00 0. -1.
        6    1    1    2  501    0 -0.55829608502E+02  0.87623430622E+02  0.68506040513E+03  0.71448097207E+03  0.17430000000E+03 0. -1.
       -6    1    1    2    0  502  0.55829608502E+02 -0.87623430622E+02  0.13524435802E+04  0.13675814193E+04  0.17430000000E+03 0.  1.
</event>
<event>
 4 661  0.7533903E-01  0.9118800E+02  0.7818608E-02  0.1300000E+00
       21   -1    0    0  502  503  0.00000000000E+00  0.00000000000E+00  0.26549837716E+03  0.26549837716E+03  0.00000000000E+00 0.  1.
       21   -1    0    0  501  502  0.00000000000E+00  0.00000000000E+00 -0.58262994389E+03  0.58262994389E+03  0.00000000000E+00 0. -1.
        6    1    1    2  501    0  0.20382933276E+03 -0.58727392834E+01 -0.46868241589E+03  0.54002276148E+03  0.17430000000E+03 0. -1.
       -6    1    1    2    0  503 -0.20382933276E+03  0.58727392834E+01  0.15155084916E+03  0.30810555957E+03  0.17430000000E+03 0.  1.
</event>
<event>
 4 661  0.7533903E-01  0.9118800E+02  0.7818608E-02  0.1300000E+00
       21   -1    0    0  502  503  0.00000000000E+00  0.00000000000E+00  0.32590372935E+03  0.32590372935E+03  0.00000000000E+00 0.  1.
       21   -1    0    0  501  502  0.00000000000E+00  0.00000000000E+00 -0.18194738060E+03  0.18194738060E+03  0.00000000000E+00 0. -1.
        6    1    1    2  501    0  0.26315754480E+02  0.14000772532E+03  0.16880525208E+03  0.28137232489E+03  0.17430000000E+03 0.  1.
       -6    1    1    2    0  503 -0.26315754480E+02 -0.14000772532E+03 -0.24848903331E+02  0.22647878505E+03  0.17430000000E+03 0. -1.
</event>
<event>
 4 661  0.7533903E-01  0.9118800E+02  0.7818608E-02  0.1300000E+00
       21   -1    0    0  502  503  0.00000000000E+00  0.00000000000E+00  0.72501468466E+03  0.72501468466E+03  0.00000000000E+00 0.  1.
       21   -1    0    0  501  502  0.00000000000E+00  0.00000000000E+00 -0.14075529785E+03  0.14075529785E+03  0.00000000000E+00 0. -1.
        6    1    1    2  501    0 -0.13844283234E+03  0.19299080576E+03  0.12474891632E+03  0.31992913443E+03  0.17430000000E+03 0. -1.
       -6    1    1    2    0  503  0.13844283234E+03 -0.19299080576E+03  0.45951047050E+03  0.54584084808E+03  0.17430000000E+03 0.  1.
</event>
<event>
 4 661  0.7533903E-01  0.9118800E+02  0.7818608E-02  0.1300000E+00
       21   -1    0    0  502  503  0.00000000000E+00  0.00000000000E+00  0.76374114683E+03  0.76374114683E+03  0.00000000000E+00 0. -1.
       21   -1    0    0  501  502  0.00000000000E+00  0.00000000000E+00 -0.56795717279E+02  0.56795717279E+02  0.00000000000E+00 0.  1.
        6    1    1    2  501    0 -0.10516148844E+03  0.32969723063E+02  0.29601482566E+03  0.36076475480E+03  0.17430000000E+03 0.  1.
       -6    1    1    2    0  503  0.10516148844E+03 -0.32969723063E+02  0.41093060388E+03  0.45977210931E+03  0.17430000000E+03 0. -1.
</event>
<event>
 4 661  0.7533903E-01  0.9118800E+02  0.7818608E-02  0.1300000E+00
       -1   -1    0    0    0  502  0.00000000000E+00  0.00000000000E+00  0.32597312495E+03  0.32597312495E+03  0.00000000000E+00 0. -1.
        1   -1    0    0  501    0  0.00000000000E+00  0.00000000000E+00 -0.11625176956E+03  0.11625176956E+03  0.00000000000E+00 0.  1.
        6    1    1    2  501    0 -0.18016718801E+02  0.84223479357E+02  0.93716220808E+02  0.21582728436E+03  0.17430000000E+03 0. -1.
       -6    1    1    2    0  502  0.18016718801E+02 -0.84223479357E+02  0.11600513459E+03  0.22639761015E+03  0.17430000000E+03 0.  1.
</event>
<event>
 4 661  0.7533903E-01  0.9118800E+02  0.7818608E-02  0.1300000E+00
       21   -1    0    0  501  502  0.00000000000E+00  0.00000000000E+00  0.13725511789E+03  0.13725511789E+03  0.00000000000E+00 0.  1.
       21   -1    0    0  502  503  0.00000000000E+00  0.00000000000E+00 -0.40360180535E+03  0.40360180535E+03  0.00000000000E+00 0.  1.
        6    1    1    2  501    0  0.10624223840E+03 -0.48415935421E+02 -0.10580029122E+02  0.21005699950E+03  0.17430000000E+03 0.  1.
       -6    1    1    2    0  503 -0.10624223840E+03  0.48415935421E+02 -0.25576665835E+03  0.33079992374E+03  0.17430000000E+03 0.  1.
</event>
</LesHouchesEvents>