<LesHouchesEvents version="1.0">
<init>
2212 2212   0.70000E+04   0.70000E+04    4    4   46   46    3    1
    0.1E+01     0.0E+00     0.1E+01  661
</init>
<event>
   8  661  0.100000E+01  0.934657E+02  0.755510E-02  0.117544E+00
  21   -1    0    0  502  503  0.000000E+00  0.000000E+00  0.352450E+03  0.352450E+03  0.000000E+00    0.0E+00   0.9E+01
  21   -1    0    0  501  502  0.000000E+00  0.000000E+00 -0.901298E+02  0.901298E+02  0.000000E+00    0.0E+00   0.9E+01
   5    1    1    2  501    0 -0.366470E+02  0.109670E+02  0.162525E+03  0.166966E+03  0.000000E+00    0.0E+00   0.9E+01
  -5    1    1    2    0  503 -0.357906E+02  0.271276E+02  0.372290E+02  0.583341E+02  0.000000E+00    0.0E+00   0.9E+01
   4    1    1    2  504    0  0.712440E+02  0.317312E+02  0.633851E+02  0.100500E+03  0.000000E+00    0.0E+00   0.9E+01
  -3    1    1    2    0  504 -0.427972E+01 -0.226755E+02  0.423474E+01  0.234612E+02  0.000000E+00    0.0E+00   0.9E+01
  13    1    1    2    0    0  0.365762E+02 -0.158905E+02 -0.226246E+02  0.458497E+02  0.000000E+00    0.0E+00   0.9E+01
 -14    1    1    2    0    0 -0.311029E+02 -0.312598E+02  0.175713E+02  0.474691E+02  0.000000E+00    0.0E+00   0.9E+01
#pdf   21   21  0.503500E-01  0.128757E-01  0.934657E+02  0.188811E+01  0.668232E+01
</event>
<event>
   8  661  0.100000E+01  0.106400E+03  0.755510E-02  0.115298E+00
  21   -1    0    0  503  502  0.000000E+00  0.000000E+00  0.772669E+02  0.772669E+02  0.000000E+00    0.0E+00   0.9E+01
  21   -1    0    0  502  501  0.000000E+00  0.000000E+00 -0.579219E+03  0.579219E+03  0.000000E+00    0.0E+00   0.9E+01
  -5    1    1    2    0  501 -0.119071E+03  0.206612E+01 -0.797231E+02  0.143311E+03  0.000000E+00    0.0E+00   0.9E+01
   5    1    1    2  503    0  0.103572E+03  0.126869E+02 -0.741591E+02  0.128015E+03  0.000000E+00    0.0E+00   0.9E+01
  -4    1    1    2    0  504 -0.148407E+02 -0.182975E+02 -0.109029E+03  0.111545E+03  0.000000E+00    0.0E+00   0.9E+01
   3    1    1    2  504    0  0.208027E+02  0.221291E+02 -0.758686E+01  0.313051E+02  0.000000E+00    0.0E+00   0.9E+01
 -13    1    1    2    0    0 -0.294171E+02 -0.136106E+02 -0.100971E+03  0.106046E+03  0.000000E+00    0.0E+00   0.9E+01
  14    1    1    2    0    0  0.389537E+02 -0.497407E+01 -0.130484E+03  0.136265E+03  0.000000E+00    0.0E+00   0.9E+01
#pdf   21   21  0.110381E-01  0.827456E-01  0.106400E+03  0.757563E+01  0.102067E+01
</event>
<event>
   8  661  0.100000E+01  0.112105E+03  0.755510E-02  0.114418E+00
  21   -1    0    0  501  502  0.000000E+00  0.000000E+00  0.206976E+03  0.206976E+03  0.000000E+00    0.0E+00   0.9E+01
  21   -1    0    0  502  503  0.000000E+00  0.000000E+00 -0.349164E+03  0.349164E+03  0.000000E+00    0.0E+00   0.9E+01
   5    1    1    2  501    0 -0.135152E+01 -0.726145E+02  0.624069E+02  0.957566E+02  0.000000E+00    0.0E+00   0.9E+01
  -5    1    1    2    0  503  0.111544E+03  0.380756E+02 -0.548735E+02  0.130011E+03  0.000000E+00    0.0E+00   0.9E+01
   2    1    1    2  504    0 -0.746011E+02 -0.216063E+02 -0.492015E+02  0.919399E+02  0.000000E+00    0.0E+00   0.9E+01
  -1    1    1    2    0  504 -0.447329E+02 -0.273765E+02  0.311035E+02  0.609748E+02  0.000000E+00    0.0E+00   0.9E+01
  13    1    1    2    0    0  0.118977E+02  0.919300E+02 -0.725161E+02  0.117691E+03  0.000000E+00    0.0E+00   0.9E+01
 -14    1    1    2    0    0 -0.275606E+01 -0.840830E+01 -0.591074E+02  0.597660E+02  0.000000E+00    0.0E+00   0.9E+01
#pdf   21   21  0.498806E-01  0.295680E-01  0.112105E+03  0.188858E+01  0.324254E+01
</event>
<event>
   8  661  0.100000E+01  0.105033E+03  0.755510E-02  0.115518E+00
  21   -1    0    0  502  501  0.000000E+00  0.000000E+00  0.310522E+03  0.310522E+03  0.000000E+00    0.0E+00   0.9E+01
  21   -1    0    0  503  502  0.000000E+00  0.000000E+00 -0.259082E+03  0.259082E+03  0.000000E+00    0.0E+00   0.9E+01
  -5    1    1    2    0  501 -0.641969E+02 -0.823445E+01  0.854466E+02  0.107192E+03  0.000000E+00    0.0E+00   0.9E+01
   5    1    1    2  503    0  0.507677E+02  0.627164E+02 -0.119269E+02  0.815657E+02  0.000000E+00    0.0E+00   0.9E+01
  -4    1    1    2    0  504  0.576697E+02 -0.874593E+02  0.632579E+02  0.122378E+03  0.000000E+00    0.0E+00   0.9E+01
   3    1    1    2  504    0 -0.564521E+01 -0.178874E+02  0.697037E+02  0.721833E+02  0.000000E+00    0.0E+00   0.9E+01
 -13    1    1    2    0    0  0.188363E+02  0.401420E+02 -0.760957E+02  0.880724E+02  0.000000E+00    0.0E+00   0.9E+01
  14    1    1    2    0    0 -0.574316E+02  0.107226E+02 -0.789450E+02  0.982124E+02  0.000000E+00    0.0E+00   0.9E+01
#pdf   21   21  0.370117E-01  0.443604E-01  0.105033E+03  0.259566E+01  0.214834E+01
</event>
<event>
   8  661  0.100000E+01  0.103794E+03  0.755510E-02  0.115721E+00
  21   -1    0    0  503  502  0.000000E+00  0.000000E+00  0.872777E+02  0.872777E+02  0.000000E+00    0.0E+00   0.9E+01
  21   -1    0    0  502  501  0.000000E+00  0.000000E+00 -0.873028E+03  0.873028E+03  0.000000E+00    0.0E+00   0.9E+01
  -5    1    1    2    0  501  0.381446E+02  0.616416E+01 -0.253810E+03  0.256735E+03  0.000000E+00    0.0E+00   0.9E+01
   5    1    1    2  503    0  0.785230E+02  0.466949E+02 -0.251415E+02  0.947543E+02  0.000000E+00    0.0E+00   0.9E+01
  -4    1    1    2    0  504 -0.387691E+02 -0.326467E+02 -0.288958E+03  0.293369E+03  0.000000E+00    0.0E+00   0.9E+01
   3    1    1    2  504    0 -0.347809E+02 -0.815839E+02 -0.165871E+03  0.188093E+03  0.000000E+00    0.0E+00   0.9E+01
 -13    1    1    2    0    0  0.897537E+01  0.943903E+01 -0.521970E+02  0.537976E+02  0.000000E+00    0.0E+00   0.9E+01
  14    1    1    2    0    0 -0.520930E+02  0.519325E+02  0.227159E+00  0.735576E+02  0.000000E+00    0.0E+00   0.9E+01
#pdf   21   21  0.124682E-01  0.124718E+00  0.103794E+03  0.684099E+01  0.553853E+00
</event>
<event>
   8  661  0.100000E+01  0.109681E+03  0.755510E-02  0.114784E+00
  21   -1    0    0  503  502  0.000000E+00  0.000000E+00  0.618929E+02  0.618929E+02  0.000000E+00    0.0E+00   0.9E+01
  21   -1    0    0  502  501  0.000000E+00  0.000000E+00 -0.795759E+03  0.795759E+03  0.000000E+00    0.0E+00   0.9E+01
  -5    1    1    2    0  501  0.294866E+02  0.201231E+02 -0.146037E+03  0.150337E+03  0.000000E+00    0.0E+00   0.9E+01
   5    1    1    2  503    0  0.803355E+01  0.412209E+02 -0.762278E+02  0.870309E+02  0.000000E+00    0.0E+00   0.9E+01
  -2    1    1    2    0  504 -0.112078E+03  0.123989E+02 -0.170071E+03  0.204058E+03  0.000000E+00    0.0E+00   0.9E+01
   1    1    1    2  504    0 -0.236531E+02  0.528605E+02 -0.715952E+02  0.920846E+02  0.000000E+00    0.0E+00   0.9E+01
 -13    1    1    2    0    0  0.452533E+02 -0.366509E+02 -0.169746E+03  0.179457E+03  0.000000E+00    0.0E+00   0.9E+01
  14    1    1    2    0    0  0.529576E+02 -0.899525E+02 -0.100189E+03  0.144685E+03  0.000000E+00    0.0E+00   0.9E+01
#pdf   21   21  0.884185E-02  0.113680E+00  0.109681E+03  0.898380E+01  0.638827E+00
</event>
<event>
   8  661  0.100000E+01  0.119369E+03  0.755510E-02  0.113378E+00
  21   -1    0    0  503  502  0.000000E+00  0.000000E+00  0.453838E+03  0.453838E+03  0.000000E+00    0.0E+00   0.9E+01
  21   -1    0    0  502  501  0.000000E+00  0.000000E+00 -0.203744E+03  0.203744E+03  0.000000E+00    0.0E+00   0.9E+01
  -5    1    1    2    0  501  0.105580E+03  0.108337E+03 -0.817288E+02  0.171940E+03  0.000000E+00    0.0E+00   0.9E+01
   5    1    1    2  503    0 -0.470388E+02 -0.101817E+03  0.560570E+02  0.125386E+03  0.000000E+00    0.0E+00   0.9E+01
  -2    1    1    2    0  504 -0.782358E+01  0.385226E+02  0.565977E+01  0.397144E+02  0.000000E+00    0.0E+00   0.9E+01
   1    1    1    2  504    0  0.353071E+02 -0.197345E+02  0.254242E+02  0.477748E+02  0.000000E+00    0.0E+00   0.9E+01
 -13    1    1    2    0    0 -0.235289E+02  0.278743E+02  0.538933E+02  0.650775E+02  0.000000E+00    0.0E+00   0.9E+01
  14    1    1    2    0    0 -0.624955E+02 -0.531824E+02  0.190788E+03  0.207688E+03  0.000000E+00    0.0E+00   0.9E+01
#pdf   21   21  0.291062E-01  0.648339E-01  0.119369E+03  0.328712E+01  0.138566E+01
</event>
<event>
   8  661  0.100000E+01  0.100772E+03  0.755510E-02  0.116229E+00
  21   -1    0    0  501  502  0.000000E+00  0.000000E+00  0.742068E+02  0.742068E+02  0.000000E+00    0.0E+00   0.9E+01
  21   -1    0    0  502  503  0.000000E+00  0.000000E+00 -0.140813E+04  0.140813E+04  0.000000E+00    0.0E+00   0.9E+01
   5    1    1    2  501    0 -0.249207E+02 -0.418565E+02 -0.222061E+02  0.535361E+02  0.000000E+00    0.0E+00   0.9E+01
  -5    1    1    2    0  503  0.394491E+02  0.414991E+01 -0.499924E+03  0.501496E+03  0.000000E+00    0.0E+00   0.9E+01
   4    1    1    2  504    0  0.979602E+02  0.315018E+02 -0.523979E+02  0.115473E+03  0.000000E+00    0.0E+00   0.9E+01
  -3    1    1    2    0  504 -0.107780E+01  0.212526E+02  0.143359E+02  0.256584E+02  0.000000E+00    0.0E+00   0.9E+01
  13    1    1    2    0    0 -0.507671E+02 -0.273839E+02 -0.175188E+03  0.184440E+03  0.000000E+00    0.0E+00   0.9E+01
 -14    1    1    2    0    0 -0.606437E+02  0.123361E+02 -0.598540E+03  0.601731E+03  0.000000E+00    0.0E+00   0.9E+01
#pdf   21   21  0.106010E-01  0.201161E+00  0.100772E+03  0.779619E+01  0.220026E+00
</event>
<event>
   8  661  0.100000E+01  0.960528E+02  0.755510E-02  0.117063E+00
  21   -1    0    0  501  502  0.000000E+00  0.000000E+00  0.459188E+03  0.459188E+03  0.000000E+00    0.0E+00   0.9E+01
  21   -1    0    0  502  503  0.000000E+00  0.000000E+00 -0.456791E+03  0.456791E+03  0.000000E+00    0.0E+00   0.9E+01
   2    1    1    2  501    0 -0.143991E+02  0.342317E+02  0.108466E+03  0.114647E+03  0.000000E+00    0.0E+00   0.9E+01
  -2    1    1    2    0  503  0.183491E+02 -0.652413E+02 -0.321299E+03  0.328369E+03  0.000000E+00    0.0E+00   0.9E+01
   2    1    1    2  504    0 -0.296796E+02  0.133276E+02 -0.906531E+02  0.963145E+02  0.000000E+00    0.0E+00   0.9E+01
  -1    1    1    2    0  504 -0.426588E+02  0.292968E+02 -0.578525E+00  0.517534E+02  0.000000E+00    0.0E+00   0.9E+01
  13    1    1    2    0    0  0.301883E+01  0.296420E+02  0.103815E+03  0.108006E+03  0.000000E+00    0.0E+00   0.9E+01
 -14    1    1    2    0    0  0.653696E+02 -0.412567E+02  0.202646E+03  0.216889E+03  0.000000E+00    0.0E+00   0.9E+01
#pdf   21   21  0.652559E-01  0.655983E-01  0.960528E+02  0.139734E+01  0.138828E+01
</event>
<event>
   8  661  0.100000E+01  0.113000E+03  0.755510E-02  0.114285E+00
  21   -1    0    0  502  503  0.000000E+00  0.000000E+00  0.443782E+02  0.443782E+02  0.000000E+00    0.0E+00   0.9E+01
  21   -1    0    0  501  502  0.000000E+00  0.000000E+00 -0.176029E+04  0.176029E+04  0.000000E+00    0.0E+00   0.9E+01
   5    1    1    2  501    0  0.397259E+02 -0.315781E+01 -0.177956E+03  0.182364E+03  0.000000E+00    0.0E+00   0.9E+01
  -5    1    1    2    0  503  0.384680E+02 -0.525522E+02 -0.282587E+03  0.289994E+03  0.000000E+00    0.0E+00   0.9E+01
   2    1    1    2  504    0 -0.313691E+02  0.112744E+03 -0.443228E+03  0.458417E+03  0.000000E+00    0.0E+00   0.9E+01
  -1    1    1    2    0  504 -0.446892E+02  0.654579E+02 -0.651931E+03  0.656731E+03  0.000000E+00    0.0E+00   0.9E+01
  13    1    1    2    0    0  0.287916E+02 -0.242647E+02 -0.184111E+02  0.419130E+02  0.000000E+00    0.0E+00   0.9E+01
 -14    1    1    2    0    0 -0.309272E+02 -0.982269E+02 -0.141796E+03  0.175246E+03  0.000000E+00    0.0E+00   0.9E+01
#pdf   21   21  0.251469E+00  0.633975E-02  0.113000E+03  0.123184E+00  0.114742E+02
</event>
